% Model:              Test1.mph
% Version:            COMSOL 6.0.0.318
% Date:               Mar 5 2023, 15:28
% Dimension:          3
% Nodes:              18732
% Expressions:        1
% Description:        Electric potential
% Length unit:        µm
% x                       y                        z                        V (mV)
115.00000000000006        314.0000000000001        5                        6.29943477131175
113.85633454128589        313.9789905940823        7.322133423324165        5.561675665576629
111.94584936107789        314.0000000000001        5                        6.299435504781464
113.5386003057313         311.4707020774023        5                        6.299435997312669
117.00000000000006        312.00000000000006       5                        6.299434764731309
114.30138640539376        308.89020042399056       7.2954343751057085       5.898310303139412
117.52470227984006        314.9071978605555        9.637945520939427        4.8881774491433125
99.00000000000001         260                      5                        13.250360079828793
97.00000000000001         258                      5                        13.250363100129785
100.02938632698809        256.96810184875454       5                        13.250358202964323
97.03359191000655         260.6440111801507        9.079981093878112        15.339067892264726
113.87711748670759        313.2177222055862        14.273421657918204       5.033088481278644
112.70748612885586        319.6127910944305        10.764214120848234       4.708457799641805
99.00000000000004         314.0000000000001        5                        6.29943745348485
97.00000000000006         312.00000000000006       5                        6.29943769986474
99.88982133426866         311.10606985555836       5                        6.299438070194122
99.48819238904272         314.3946194045602        8.650156105762969        5.732191252769841
99.00000000000001         284                      5                        6.299450847554886
97.4443336288938          286.2674875676225        8.618270974447464        7.6522195949959055
99.2713459911489          280.97875761934006       9.992720554912188        8.833335776673259
102.62375990116028        285.23325343046827       7.940889473056353        7.153363215073095
100.25896538036821        285.7223764214987        5                        6.2994486970509564
97.00000000000004         286.00000000000017       5                        6.299449995839176
85.00000000000003         286.0000000000001        5                        7.615954794300079
83.00000000000004         284                      5                        7.6159550805441985
82.72148362918296         285.4818579937095        8.566339938504624        8.937285193935425
82.8720662744028          287.50863202020497       5                        7.6159524947354615
84.34955889243588         282.388075434294         8.256209723221497        10.035131567517142
86.33353056230519         283.39576930502744       11.512419446442992       9.766775333831013
85.00000000000007         312.00000000000006       5                        7.615935856163327
85.76867519851623         313.9038235410661        7.238156147913766        6.468001607659233
83.00000000000004         314.0000000000001        5                        7.615935360159123
82.52948675136943         310.7247928527325        10.558444506927072       6.644350398143807
87.03729668365558         315.2470687462918        5                        6.208691739992958
82.11342863884441         311.10748373435524       5                        7.615936958705852
115.8475825414912         255.71477883121202       7.663145070321286        11.668924927075723
116.99999999999999        258                      5                        13.250340025363219
114.11342863884416        257.10748373434905       5                        13.250343289279785
116.39738314466582        259.06023197650234       9.01050392684962         10.572527874232797
119.8189017585638         256.7623037662693        8.909354956388475        9.786908881446575
114.99999999999999        260                      5                        13.250340090276636
112.97586453076784        261.3581601867353        9.111652897310762        10.833883103508834
84.99999999999999         258                      5                        49.032818739678994
82.11342863884411         257.1074837343551        5                        49.032818739678994
85.76567891286594         255.88550146525128       7.650343254459782        33.98970773864555
84.11628164308613         261.0974684691302        8.354157120343613        29.117823871718997
87.83307060525796         258.1967938350822        8.859626564438969        26.365328352450657
83                        260                      5                        49.032818739678994
82.36558722256659         281.3803815635605        5                        10.333842570537117
80.57241033702046         281.80447983830265       9.180889402306132        10.463627555382203
-85.01673475928347        309.0684758670949        13.80472138780888        6.27322942654797
-84.37512527537861        310.61322642710644       9.125206699968194        6.375877735192488
-89.34179992082403        306.7713514042251        10.345509100305607       6.633756703029129
-89.816198243338          312.1896026958673        11.451440633215089       6.2118738260639255
-84.65949812492886        314.812949134143         12.292127807173216       5.887811888791066
-84.99999999999999        312.00000000000006       5                        6.735673750134033
-85.00000000000001        308.76348558618207       5                        6.735674935337079
-81.97061367301195        310.9681018487548        5                        6.735674374291904
-82.99999999999999        314.0000000000001        5                        6.735673475657441
-81.74758053908373        313.04381219509213       8.533031222319117        6.232354123286274
112.806808937442          286.1099442541609        5                        6.2994449392597005
115.00000000000006        284                      5                        6.299445012589775
114.87199333838034        287.5087770188606        5                        6.299444289901778
115.75683113819134        284.77620363731427       8.965278975529062        6.512665284277576
113.26274741400758        282.6041831311967        7.239499882610313        6.883854368141106
117.00000000000006        286.0000000000001        5                        6.299444395951006
118.55189646528042        314.3314262996852        4.999999999999999        5.084983123908933
95.4453326803451          262.2536647180903        4.999999999999999        16.038372630613676
95.71715053080544         283.28030806118          5                        8.39003357715883
93.8897403118269          281.9351923030554        9.607596166599125        9.400896724221841
93.85869692827026         284.6724493083657        5                        8.484033400670898
89.73786028179316         284.80184705337865       5                        9.025758522050436
85.68397139889132         282.47931471089214       5                        9.810438941721928
118.89996168109292        287.88856835133          9.058431863891846        6.0158506924592645
118.34854912883245        309.8523388185558        10.035775586375404       5.149151842078157
114.90337724193948        317.14846121122764       5                        5.043604709306331
120.66425561212837        318.4255105805155        8.310857522003186        4.3018892373757
122.558546351498          313.71737831377914       5                        4.471289679174974
81.66252475768282         230.78457020060486       6.91499122734073         39.07676993549968
80.94545440206959         233.54570671067617       8.062574686478039        38.841466835318094
85.74172036169992         231.83753742913933       9.457212099240564        28.782374740198772
82.87206627440256         233.50863202020474       5                        49.032818739678994
98.54198940707572         207.2469978871473        6.972810637229514        8.684646380391285
99.00000000000001         206.00000000000014       5.000000000000003        6.944530661643262
101.38100806563669        206.2988867460208        8.945621274459029        8.31273645079486
98.94532139651824         202.92461374998675       7.742108540233553        7.746465055868189
100.0293863269882         202.96810184875477       5                        6.944528534681694
96.01961649477805         204.9279065933615        11.121468988133795       8.897740604225222
97.00000000000003         204.0000000000001        5.000000000000003        6.944530876240738
97.00000000000003         200.76348558618218       5                        6.944528488660508
80.80811443758932         232.10969379319354       5                        49.032818739678994
83                        229.99999999999997       5                        49.032818739678994
80.1481035038058          229.99999999999994       5                        49.032818739678994
97.00000000000003         232                      5                        13.250362892953138
97.00000000000003         235.23651423051516       5                        13.250363078253159
95.70578240375845         230.59664864530637       8.432236153972395        16.649731294045868
99.79638379754803         234.59063688107105       7.723469970197303        14.301680740295804
84.99999999999999         232                      5                        49.032818739678994
85.00000000000001         235.2376215667254        5                        49.032818739678994
85.92993254110907         228.32704743166036       4.999999999999999        28.298143408615438
85.43424527786405         261.3193532276722        5                        30.628989257906543
114.99999999999999        229.99999999999997       5                        13.250341791139217
112.80811363458108        232.10969349640135       5                        13.25034485825893
112.14810315818804        229.99999999999994       5                        13.250344233429612
116.12239045892244        231.15368933289898       8.224286894709104        11.064913284671189
114.87206619816745        233.50863077874482       5                        13.250343685575142
117                       232                      5                        13.250340438061986
117.00000000000001        235.2376215667254        5                        13.250342096724475
120.84823697997791        233.52668315887703       7.151859659160537        9.798382721055221
114.03499573421173        228.25155239233257       7.040154351114591        11.090096688387971
100.25896621856961        231.72237685851337       5                        13.250358489916662
100.92084830759818        230.24112713407615       8.345101017307336        13.74171380161274
98.68534396730662         232.35201199053915       11.990902015314237       14.974725969888066
99.00000000000001         229.99999999999994       5                        13.250360565157866
101.85189684181194        229.99999999999997       5                        13.250356740628217
99.13958382384706         227.42750321352946       8.790321769723075        14.084842826157905
93.82580245821995         230.66920441617742       5                        18.490808265932866
93.14310564634745         233.63326066005055       5                        20.279920368755487
90.03596761861871         230.7221135342826        5                        23.594355207134303
88.93136580942986         234.29081527587908       5                        28.127803418361687
-101.06678463077968       313.6174210815854        7.772619020963421        6.82510049246548
-101.73674682786734       311.30037739177067       5                        7.608841605952468
-96.99999999999999        312.00000000000006       5                        7.608840595615006
-99.44206159997293        308.5428882484075        10.485789822528625       6.87756574929483
-116.99999999999999       312.00000000000006       5                        7.60883938567887
-116.6402187368429        312.028634765735         6.675254324448547        6.779395196323148
-114.87107483556672       310.34310460315663       4.999999999999999        7.6088408154855784
-114.99999999999997       314.0000000000001        5                        7.6088390964410255
-113.87912173826295       311.3232439109008        8.50282546163911         6.731567606252409
-114.12515419581791       315.2322913299204        10.556174556382167       5.960900735205276
-94.71010097788991        313.1574021293697        8.845926083753257        6.4093992891104605
-98.56322766827897        316.5530875932325        12.691852167506514       5.934251144195845
-96.99999999999999        308.7623784332747        5                        7.608842086331064
-101.85189684181192       314.00000000000017       5.000000000000001        7.608840506090055
-98.99999999999999        314.0000000000001        5                        7.608839955928653
-91.73088266972614        308.7122149860161        7.6727545501528045       6.665690121719224
-88.60316697569819        309.52371586124815       5                        6.551825764183461
-84.76932610415739        306.43700731295314       8.773876379198587        6.604512835942811
-94.11996541862823        310.65307856780703       4.999999999999999        6.776043238614476
-93.30597968135287        313.2111809394173        5                        6.441315342565855
-91.37484396550656        310.9632252525456        5                        6.520710570739759
-81.7410337814305         285.7223768585132        5                        6.735685190217398
-82.99999999999999        284                      5                        6.735687356101778
-81.57275211786347        286.2808420273321        8.63141923592583         7.698740076225336
-85                       286.00000000000017       5                        6.7356866643722375
-82.99999999999999        260                      5                        13.771443157502514
-84.99999999999999        258                      5                        13.771446246656875
-81.97061367301188        256.96810184875454       5                        13.771441560636799
-84.42616724429409        260.1864344412962        9.873776593950053        15.5028844767001
-67.88657136115583        311.1074837343491        5                        6.735672824731552
-66.99999999999999        314.0000000000001        5                        6.735671604402505
-67.51041597415502        312.052089949244         7.598601950632899        6.153061341681678
-65.00000000000001        312.00000000000006       5                        6.735671700466073
-64.48700823652092        314.6308768623605        7.894362144408127        5.551599548831364
-62.926219104571416       309.99033204413405       10.270650172133683       5.616589987541289
-68.01729492540379        316.4922101608608        7.580735548695097        5.601222754341067
-64.18159313701129        314.3810435987265        5                        5.7093054452143255
-95.78796320459846        319.1817523761871        8.845926083753257        5.753940555873161
-94.91344395562463        315.31095630512715       5                        6.318263752917992
95.86003892619671         315.9122413589435        5                        5.708778829073906
67.00000000000006         314.0000000000001        5                        7.615935053231583
68.02938632567945         310.96810185459594       5                        7.6159365918712005
69.851896841812           314.00000000000017       5.000000000000001        7.615935611059202
66.75403632206611         312.7587367566434        8.105693859809957        6.614550578791804
68.43871926062307         316.4449733998955        7.069316398512389        6.182298619824298
65.00000000000003         312.00000000000006       5                        7.61593523687811
119.93738980807132        259.5201080091922        5                        9.734134794281085
118.13383471956301        261.858112876524         11.23037467771353        9.233113729192043
117.64908968691111        261.80727200847497       5                        10.0846009666768
65                        258                      5                        49.032818739678994
68.02938632567934         256.9681018545956        5                        49.032818739678994
65.67088317274943         257.14114761705633       11.351633151229436       28.140567609350708
65                        254.76348558618088       5                        49.032818739678994
67                        260                      5                        49.032818739678994
69.13748042462468         259.9504643562506        8.399782938851125        33.74031942822864
62.78667509402363         259.7625281234227        7.893035587982045        26.90776638411542
66.82992606007427         262.35118284968746       11.95125501214758        23.497250550216663
64.82449375446056         263.30025430055696       7.644937453960599        24.703467476324246
66.99999999999997         229.99999999999994       5                        49.032818739678994
68.25896591890042         231.72237661086356       4.999999999999999        49.032818739678994
65                        232                      5                        49.032818739678994
66.72049728701882         232.44683099625703       8.081200859958173        36.16887606002869
63.39184082334532         228.55782042291307       5                        27.61213701013031
64.77883249564921         229.40195288538195       8.746870641384893        28.112041544793676
-78.95565600175196        282.57083359663966       8.63141923592583         8.258590058559408
-84.94937204917784        283.373839990211         8.754142040903238        8.78334670419576
-86.40382294709394        283.2158057211748        5                        8.82980594480501
-98.99999999999999        284                      5                        7.608859769904433
-96.99999999999999        286.0000000000001        5                        7.60885935254572
-99.12800669475254        287.5087742362241        5                        7.608857153267143
-99.75801312319567        285.1875526911977        7.064165019527362        8.649888201438303
-96.81604681098501        281.5237599374092        7.561959360822743        10.477183090632396
-93.70588057674698        286.5718993921892        8.55847427582362         8.879630135520749
-99.7907180245003         281.03785755840346       4.999999999999999        10.660073648148222
-98.99999999999999        260                      5                        49.05823396462565
-97                       258                      5                        49.05823396462565
-96.93716261967154        260.4528165611918        7.959065624453365        29.88956570295335
-99.31839194271026        257.32647057234124       9.253603683659085        33.81565898499173
-99.88657136115586        257.10748373434905       5                        49.05823396462565
83                        176.0000000000001        5.000000000000003        8.375363963736119
84.99999999999999         178.00000000000009       5.000000000000003        8.375363758682829
82.87206627440267         179.508632020205         4.999999999999999        8.37536530876943
82.99674253154875         176.29922642497053       7.096625269190331        7.558333799649344
87.97989123810974         177.788834119485         9.09669657099435         7.006288540646031
84.10954755713068         181.03376439109172       9.123415131614044        7.580328717009498
-64.99999999999999        286.0000000000001        5                        6.735681688187058
-67.12793380183251        287.50863077874493       5                        6.735681415341161
-66.99999999999999        284                      5                        6.735682313252904
-66.68530190565951        286.62006441060873       7.40977974317119         6.869425159891105
-64.33681525150239        283.5419765708829        8.21967342171253         7.0446715234223225
-69.09980814932669        283.6773637720926        7.209986313887559        7.2402071841708295
-62.58241185935328        287.3858294201503        5                        6.585417304880976
60.39571181439942         258.0142042628281        11.351633151229436       22.05706920438227
-89.27676271202068        313.6231907383394        5                        6.229333503120121
-85.39144082794904        315.74402377970745       5                        6.090074052695884
116.99999999999999        204.0000000000001        5                        6.944525011152176
115                       206.00000000000014       5.000000000000003        6.944525643227364
114.11342863884416        203.10748373434922       5                        6.944525095453826
116.86389620654079        204.73103213290176       9.497312698972918        7.017710166484058
116.99999999999999        200.76237843327476       5                        6.944524167136983
114.0629996215698         206.558021322222         7.283205066395134        7.299154042992441
113.05921352046555        209.10470499327405       11.885682094736227       7.783449125705894
112.94361040627538        201.96245527161008       9.837908199260562        7.07732138770166
112.14810315818806        206.00000000000014       5.000000000000003        6.944526101144647
112.08240137519073        208.5194842189764        5                        7.671711905125149
115.72318633987372        211.24830562383255       8.53628881705884         7.7633493119455474
95.70297074851473         208.1951090282738        4.999999999999999        9.496673773259442
100.4074231030856         209.49792724731444       5                        9.096601841868605
121.51242808381171        229.09882538068555       5                        9.091937492454543
119.42929175815662        176.87820760190036       7.887066087458681        5.704530487714009
117.00000000000001        178.00000000000009       5.000000000000003        6.944515764247849
114.61222929283029        180.88075257622657       9.019817235666885        6.323701289503588
119.22454701804192        181.78155514655347       9.325027806797115        5.928448903481647
97.00000000000003         178.00000000000009       5                        6.944518819004194
99.00000000000001         176.00000000000009       5                        6.944518340504003
100.2589662185695         177.72237685851326       5                        6.944518803650047
96.7803377149363          178.79066423839862       7.574715553575376        6.742562671322903
117.39013109743465        282.4422573060684        4.999999999999999        6.552700251865924
116.99923623711736        279.55051995895485       8.965278975529062        6.965233896644409
121.88732900334217        282.63183360308756       9.515501301393687        6.071237291774092
119.61944921034329        284.90765581575397       5                        6.120808356456452
80.68293714944933         226.93892186051224       12.751770862872402       23.31287860029894
82.91898224482647         227.52627134064912       7.209404832166743        29.155974301621242
84.99999999999999         204.0000000000001        5                        8.375381651896891
84.71830652071316         202.0589596550308        8.09968743951117         9.011284708158723
86.15185329519836         207.37405805108796       7.502706745760338        10.424925585770437
82.31856058110453         206.14447114994422       9.847277392101407        10.254502087584449
83                        206.00000000000014       5.000000000000003        8.375382830969544
82.11342863884435         203.1074837343553        5                        8.375380489842103
87.62734804308494         202.93859089594963       8.096081709993989        9.191807513194592
95.48964673790293         199.44618137781026       9.3839201944223          7.980043545974327
87.7022445905015          205.00747201322145       5                        9.578512545877565
95.57026161776642         229.19543945307453       5                        16.380707415993008
96.7945954402681          226.32380201906864       4.999999999999999        15.030473943299596
85.41059925810195         207.5534990309141        5                        10.393994882759616
90.1223106354641          208.55122806173492       5                        10.571403520486554
85.63941633489311         210.9323927191641        5                        11.975396710948045
112.86687588852121        176.3276724077008        8.125941698012301        6.235434602121075
115                       176.0000000000001        5.000000000000003        6.944515871057815
114.87206619816757        179.508630778745         5                        6.944517140802154
112.80811363458108        178.10969349640135       5                        6.944517176772374
116.90528372682472        178.49548901333876       11.449832928172436       5.821168075452108
112.14810315818806        176.00000000000006       5                        6.944516652431811
116.50319694343753        172.72095513220728       10.9962467166501         5.461223098130316
115.93835859452523        210.06371961992298       5                        7.594683136615841
117.71770810381734        227.85209475037615       5                        10.12119760096545
118.67841038112304        227.0600753739127        11.524057350795236       9.173651268904278
100.25182755181946        226.31597492941563       5                        13.474474823388173
424.63145749826094        531.5027746989925        608.9749136171249        0.08143871164434653
513.8026582262863         628.2133937713778        670.8441163188377        0
326.5224727422411         637.6501809889429        779.363891128074         0
418.7668625326756         450.3610037489928        733.934135222323         0
334.39857963244333        665.7513873494962        605.2571583939698        0.06416836340140562
422.49944986418933        799.9999999999999        731.7905618220454        0
420.5324872330811         799.9999999999998        555.3048110962469        0
597.5052301026326         799.9999999999998        597.5052301026328        0
151.87336549518898        664.1780091775892        831.239725261711         0
205.6651401655498         648.9201959691454        646.3955796703048        0.08007658949998356
218.7018426261276         799.9999999999999        816.2062947192358        0
-100.49261616710345       317.8628757063388        5                        6.133698344474651
-116.7256366484386        315.32036874021463       5                        6.233095247924049
-113.61213756868884       316.4414467011924        4.999999999999999        6.2291381291437835
-118.93603604967063       313.29832834296036       5                        6.122496184579072
-117                      308.76348558618207       5                        7.608840822360704
-119.2555875801191        310.95996020962343       4.999999999999999        6.332033233032378
-115.00000000000001       284                      5                        7.608858863186802
-115.59859440156171       285.055191273487         7.477249169371263        8.67152154040829
-113.34403386574468       282.4406877446214        8.286586422354002        9.891165113821756
-113.741034319991         285.72237666918085       5                        7.608857044580775
-118.86855742992705       315.3777553253187        9.122510885073169        5.610498453117815
-67.88657136115586        257.10748373434905       5                        13.77142721422487
-65.48069547997507        257.25174439283546       8.88702978858378         11.468683960991031
-66.99999999999999        260                      5                        13.7714236981698
-69.72300821452144        256.97655265101645       9.891916476089225        12.13357750016936
-65.00000000000001        258                      5                        13.771424314587879
-65.95654822204929        279.44062136729275       8.614033048703988        7.695461387438326
-81.55427169792291        280.316540394269         4.999999999999999        9.075182590860422
-65.38433203477746        261.61255137256205       8.265362625893477        10.729720624214737
-114.99999999999997       260                      5                        49.05823396462566
-115.15150924095244       259.03406372664637       7.432729162180737        36.485052699758064
-113.97061367301178       256.9681018487546        5                        49.05823396462565
-112.14810315818804       259.99999999999994       5                        49.05823396462565
-116.99999999999999       258                      5                        49.05823396462565
-116.34159726071788       253.87039752712786       9.962338247124116        32.265207218006964
-86.43108982121616        261.8990466551009        5                        16.42727613550363
-95.67902324992683        261.7462178822931        4.999999999999999        27.635041652357025
-85.22939882760289        280.3136401262213        5                        9.650930415953768
-65.230226839627          316.6348192282853        5                        5.444929425026627
-61.1036501696476         316.76142962444806       4.999999999999999        5.007770248728107
-61.972037947035744       313.2892626896912        4.999999999999999        5.465340574047851
-116.45400477312083       281.1186426357918        5                        10.187697988955025
-117                      286.00000000000017       5                        7.6088574463479315
-113.99894085521079       287.9767447956357        4.999999999999999        7.608855755928375
-117.85728039457496       288.2144340527477        7.649372249068141        8.029525081785655
-118.20502853615986       283.34642591795296       7.874878009383622        9.240668956641178
-118.56801465119608       283.9319050697465        5                        8.906363864061719