% Model:              9.mph
% Version:            COMSOL 6.0.0.318
% Date:               Mar 28 2023, 15:47
% Dimension:          3
% Nodes:              41061
% Expressions:        1
% Description:        Electric potential
% Length unit:        µm
% x                       y                        z                        V (mV)
-160.67583180946937       313.99227205652124       -142.17869799082013      0.4553564172872413
-158.00000000000003       314.00000000000017       -145.00000000000006      0.45594085272827517
-159.5411948049443        310.4486741400124        -144.99999999999997      0.4559408526758123
-163.23375218416135       314.0000000000001        -144.99999999999997      0.4559408522619011
-160.80702609816547       317.12982997792454       -144.99999999999997      0.4503608935508629
-144.00000000000003       286.00000000000017       -145.00000000000006      0.526301059746918
-146.40368212448325       282.9842702290749        -144.99999999999997      0.5269226166372195
-142                      284                      -145.00000000000006      0.5263010598715647
-146.070656374589         285.1875320636697        -141.83919502008467      0.5250553035222231
-148.67370318097892       285.4954045621962        -144.99999999999997      0.5163939510865506
-147.0262822172944        288.5940609760373        -144.99999999999997      0.5173465056659998
-153.71094476296932       282.74713179761045       -144.99999999999997      0.5014809161762581
-156.00000000000003       286.00000000000017       -145.00000000000006      0.4559408541816291
-156.87864015716735       282.00042271232445       -141.5369328012095       0.4962982015045247
-150.54028937640726       286.25793377375294       -141.06900667215845      0.510989842397361
-156.39385073539697       278.7128642548888        -144.99999999999997      0.5064595588069803
-158.00000000000003       284.0000000000001        -145.00000000000006      0.4559408541636953
-161.54238841918075       278.01948712552013       -144.99999999999997      0.49547010403153313
-156.9787017375941        321.0096337699929        -140.50260042215845      0.4522240114691342
-156.00000000000003       312.0000000000001        -145.00000000000006      0.4559408528911672
-159.15820932175995       306.6164621599202        -140.4772126055396       0.46524597489860386
-154.7174836280066        314.6742171613706        -140.50260042215848      0.46789547223422917
-154.5768297791887        317.0506874350492        -144.99999999999997      0.46363583173028505
-151.35166101945347       313.61738430733624       -144.99999999999997      0.47782597740204485
-146.1092066168883        314.4923040027901        -144.99999999999997      0.4952942649302425
-148.7720507033282        319.2282078050387        -144.99999999999997      0.4749294176839258
-144.626287218973         314.7628525430419        -141.30052167184422      0.4971280521350058
-144.00000000000003       312.0000000000001        -145.00000000000006      0.5263010579334625
-142                      314.00000000000017       -145.00000000000006      0.5263010579472055
-148.16482478893738       309.972345602204         -144.99999999999997      0.49544265880942917
-143.63122509940195       317.73815453587605       -144.99999999999997      0.4923732164992983
-138.99758372794426       318.79325254587104       -144.99999999999997      0.4967821478167472
-144.22415959594656       308.52613744431795       -140.58096809980796      0.5087576948429983
-136.7662478158387        314.0000000000002        -145.00000000000009      0.5263010582521929
-140.07458356860664       313.2613250798076        -138.66675321519864      0.5075748584187335
-140.1937188322137        310.15316134058963       -145.00000000000006      0.5263010583142946
-160.38200987292973       311.2255956582738        -135.97135042215842      0.4625378773874402
-175.99999999999997       258                      -144.99999999999997      0.5293655104031519
-174.00000000000003       260                      -144.99999999999997      0.5293655104169294
-175.39085957739832       258.9557059350984        -142.19420061434698      0.5048166929445265
-171.5240666962821        255.51894994444996       -144.99999999999997      0.5293655110182217
-177.95445912512633       261.7360707424795        -144.99999999999997      0.4848979483340571
-174.00000000000009       314.00000000000017       -144.99999999999997      0.45594085080671765
-176.00000000000006       312.0000000000001        -145.00000000000006      0.45594085069475015
-173.7673317998306        311.8662569138189        -139.89470795164183      0.43354287496706556
-177.1956060539556        316.7678380888708        -144.99999999999997      0.41228158312185853
-171.52434598836038       309.519062316943         -144.99999999999997      0.4559408514760295
-126.00000000000003       314.00000000000017       -145.00000000000006      0.5263010584697266
-124.00000000000003       312.0000000000001        -145.00000000000006      0.5263010585182643
-121.52446352217781       315.60388761909775       -144.99999999999997      0.508657179441607
-124.81928212578475       317.0910757292173        -141.45567018503618      0.5079851345265622
-129.72139602551994       311.8441931840972        -139.6988240186803       0.5204752399703062
-127.54977665712066       310.45920733703633       -145.00000000000006      0.526301058653459
-155.99999999999994       258                      -144.99999999999997      0.5293655125063603
-157.99999999999997       260                      -144.99999999999997      0.5293655123793859
-156.49413840342984       256.9712721803753        -141.60963761342296      0.5399366205927977
-154.95950544748484       262.04899164308415       -144.99999999999997      0.5404179518011232
-159.54138599444425       256.4487088464145        -144.99999999999997      0.5293655122662281
-143.4466526853475        291.3749703647239        -142.10669619877035      0.5239433428326113
-157.4188000901589        288.2370067281157        -138.21201072267226      0.49019677203581585
-159.8076334650993        287.8099413762862        -144.99999999999997      0.4559408535577764
-154.96222363064896       289.486404557322         -141.3926517893468       0.48713690677609367
-163.55156171214085       285.4572455242132        -135.93750000000003      0.48390920898497913
-165.16687066495197       281.4287860796268        -140.71729298701962      0.4805033840074328
-140.20430912059226       287.81712926050875       -145.00000000000006      0.526301059764399
-136.76624781583865       284                      -145.00000000000006      0.5263010600825854
-141.45536289264746       286.6472754044766        -139.73712672762875      0.5334691386967894
-149.2295914915791        291.18528991526944       -137.27341503295065      0.5129918730135772
-153.84554542936522       282.07030881154384       -137.04590410810968      0.5142339384596025
-142.12938493525021       281.6392841913165        -138.47392837726758      0.5419900866285746
-147.98741057992325       282.87713068009117       -137.20571418863378      0.5286652084922923
-144                      258                      -144.99999999999997      0.5976059323557151
-141.99999999999994       260                      -144.99999999999997      0.5976059324056309
-141.27531577255436       256.25742834505013       -141.0714942604033       0.5885548724562776
-140.19371883221362       256.1531613405894        -144.99999999999997      0.5976059326111146
-146.95631751873285       261.37429131720717       -140.7990533876258       0.5661927535102085
-146.28302184744152       261.16975142117184       -144.99999999999997      0.570145523035121
-126.00000000000003       284                      -145.00000000000006      0.526301060623398
-124.00000000000003       286.00000000000017       -145.00000000000006      0.5263010606447881
-128.17215688058565       288.18245722388343       -145.00000000000006      0.52630106022289
-127.2283450250952        283.46337012446037       -140.18228700774267      0.5528110281295109
-121.33156821331181       281.73830204329363       -144.99999999999997      0.5562475067171928
-152.0025974704704        308.3499242396668        -138.32684868029213      0.48498859011562584
-174                      229.99999999999997       -144.99999999999997      0.5293655114318917
-175.99999999999997       232                      -144.99999999999997      0.5293655113032941
-172.62885489878107       231.92285286527834       -141.60156249999997      0.521707512139944
-172.15331136344415       233.8256553122311        -144.99999999999997      0.5293655116881469
-122.65439517532216       203.5677835326865        -150                     0.3851767377436319
-122.49445536792551       207.65546007242776       -150                     0.3866631631173312
-119.84458275968778       201.71833659914438       -155.62254636345705      0.3902837045106444
-125.13483641825245       206.74119858823929       -155.1673381775334       0.3796594270987168
-128.22252371445154       206.00208082462566       -150                     0.37374287686976604
-174.48821390596018       227.192762441329         -139.90234374999997      0.5131266920089945
-178.03715463392146       228.04513313367153       -144.99999999999997      0.5030288378738911
-171.5245983983496        201.5198248145737        -144.99999999999997      0.5348003919457951
-176.0000000000001        204.00000000000014       -145.00000000000006      0.5348003915128129
-171.32837861464188       200.12100666376517       -139.27534210206426      0.5273855083942667
-174.00000000000014       206.00000000000014       -144.99999999999997      0.5348003916079006
-176.29543205911085       204.44229638795747       -136.94196995417636      0.5119533183794313
-177.67251807359904       208.05875170275715       -144.99999999999997      0.5095479846003632
-176                      286.00000000000017       -145.00000000000006      0.45594085240403537
-174.00000000000003       284.0000000000001        -145.00000000000006      0.45594085258215283
-172.1623373321693        287.8166942349409        -144.99999999999997      0.4559408525815308
-175.50060011777913       289.1828044025344        -140.17314712726753      0.44726753040433526
-180.1523698726562        283.0176968874627        -140.56297616134233      0.435389959688162
-178.6391852498301        282.5299879000436        -144.99999999999997      0.44065744059397993
-144                      232                      -144.99999999999997      0.5976059332035132
-141.99999999999994       229.99999999999994       -144.99999999999997      0.597605933294787
-140.20430912059248       233.81712926050847       -144.99999999999997      0.5976059333587883
-143.77379005770214       234.73500815916415       -139.5137987834406       0.5902395332113725
-125.99999999999997       260                      -144.99999999999997      0.5976059331512047
-123.99999999999997       258                      -144.99999999999997      0.5976059332147192
-126.57512440260888       259.7860766313704        -141.75620662405944      0.5985202643839578
-127.54977665712053       256.4592073370361        -144.99999999999997      0.597605933159664
-122.58006832648375       261.7808918596948        -144.99999999999997      0.5979234409459767
-176.0000000000001        178.00000000000014       -145.00000000000006      0.5348003911707507
-177.8254405043664        178.16384565473984       -141.54221209281206      0.5063420754736624
-182.12943370143623       177.01278181157625       -144.99999999999997      0.48761746070072187
-177.68993677494908       174.0083253029043        -144.99999999999997      0.5035322303743474
-180.2268104256959        181.3725581126618        -144.99999999999997      0.5001470780690392
-176.0000000000001        182.96135976441713       -144.99999999999997      0.5348003913503938
-173.56500859015327       184.34676686156598       -140.8453324816598       0.5232563955269854
-174.0000000000001        176.00000000000017       -145.00000000000006      0.5348003911963967
-172.11788581547955       179.86761793398713       -144.99999999999997      0.5348003915660834
-173.88507252116912       179.1102652670962        -138.8174698509865       0.5167412400348484
-179.01947331219793       185.99951718890583       -135.52075845882715      0.5012952048308921
-168.7662478158387        176.00000000000014       -145.00000000000006      0.5348003917152686
-158.00000000000009       176.00000000000017       -145.00000000000006      0.5348003926721074
-156.00000000000009       178.00000000000014       -145.00000000000006      0.5348003927800599
-159.81282739594607       179.81707812175617       -144.99999999999997      0.5348003924910707
-156.3370415559206        176.1244968494392        -140.8584542528913       0.5501743156226515
-161.09882047738034       175.26751580345982       -140.46875000000003      0.5400677861930971
-153.6168093003069        174.91908648326958       -144.99999999999997      0.5559241765069577
-156.16782519025975       171.3541526980626        -144.99999999999997      0.5494674049586906
-117.1408182820501        205.14939878733506       -149.99999999999997      0.39945470591712506
-158.00000000000009       206.00000000000014       -145.00000000000006      0.534800393157742
-156.00000000000009       204.00000000000014       -145.00000000000006      0.5348003932849102
-157.26607043374938       206.82259571836656       -141.7743905414195       0.5534009273978113
-159.54134725042582       202.44870224860333       -144.99999999999997      0.5348003929288466
-157.91199805790652       202.1250942188908        -141.3117218017578       0.5485619468567207
-155.12788612002208       208.0026643010259        -144.99999999999997      0.5589608002880045
-151.88088448869235       202.57229767674608       -140.1656341552734       0.570193447437727
-152.36103904031324       207.1555560414924        -141.7965387271034       0.5694079420221245
-157.99999999999997       229.99999999999997       -144.99999999999997      0.5293655131951316
-155.99999999999997       232                      -144.99999999999997      0.5293655132978491
-159.77977295651974       233.7928819901669        -144.99999999999997      0.5293655128198428
-156.08810609104455       229.81563012138588       -139.39040332733026      0.5563010862724304
-153.65208898344207       228.25598474978457       -144.99999999999997      0.5606707612720712
-144.00000000000006       178.00000000000014       -144.99999999999997      0.6053112804126454
-146.3759630720211        175.10258238684494       -144.99999999999997      0.5806370727078879
-142.00000000000009       176.00000000000014       -144.99999999999997      0.6053112804275681
-145.92086342280265       177.455321306791         -140.46874999999994      0.5827461169814973
-142.84493106147903       179.78446886330417       -140.46874999999994      0.5926888594016009
-140.22409834937378       179.7608774998712        -144.99999999999997      0.6053112806926951
-144.00000000000006       204.00000000000014       -145.00000000000006      0.6053112808940249
-142.00000000000006       206.00000000000014       -145.00000000000006      0.6053112809666835
-146.29037849574888       207.30097367359858       -144.99999999999997      0.5888047165536323
-141.467425763924         204.3233848579498        -140.98753593262302      0.6005100897386898
-139.52360627161653       201.5187362404           -144.99999999999997      0.6053112811204886
-124.00000000000006       204.00000000000014       -144.99999999999997      0.6053112819543393
-126.00000000000006       206.00000000000014       -145.00000000000006      0.6053112819343857
-124.96838977411325       204.9239542346459        -141.30363663793946      0.618737697503733
-122.00709019151695       207.88817304860626       -144.99999999999997      0.6241592892841143
-127.54141670254606       202.44871588901773       -144.99999999999997      0.6053112817157081
-145.87821007513335       231.0932100898846        -138.2714915392692       0.5863985515693065
-145.80673388047464       228.5420596337227        -144.99999999999997      0.5862773831532383
-184.6762800130478        179.80877714021284       -135.39940737694292      0.47829904948220253
-180.70018585007725       172.69759781208106       -138.39570202166578      0.4879839044586914
-4.311064124751336        283.4688516847322        -150                     0.4188709535590111
-6.210575272423216        285.62776462002915       -154.686613425745        0.4194157506581823
-10.179379774669192       283.34863657495066       -150                     0.4240099694801814
-7.283016745940715        289.3077597468559        -150                     0.4208737068786999
-5.80766476889254         257.13325044673417       -150                     0.4175331710834615
-5.838902495794946        262.8392782812245        -149.99999999999997      0.4184806329978254
-5.645571104661331        259.2261090838731        -156.63155992059222      0.416517585014874
-12.00231220637032        260.00502105735194       -149.99999999999997      0.42354413988052025
-6.948502017868183        279.34152308899246       -150                     0.4208197700773042
-6.00000000000002         312.0000000000001        -145.00000000000006      0.6875908635598763
-8.00000000000001         314.00000000000017       -145.00000000000006      0.6875908634168458
-9.541385994444349        310.4487088464148        -144.99999999999997      0.6875908637517048
-5.620102601926735        311.4718447815005        -142.09421766697383      0.6767722757083523
-4.576829779176556        317.0506874336923        -144.99999999999997      0.6581843374702112
-0.692375168066415        260.12825805892396       -150                     0.4153635266205296
4.743014204280773         258.0010478098414        -150                     0.4139503004614404
7.164768665962059         259.68576395995905       -158.29885942347957      0.4123752734752185
0.5649318387832013        257.9431737490562        -158.44546623389166      0.4126746882143159
4.6061802093743776        263.353467104021         -150                     0.414763010064453
8.877361449514607         258.24407776831526       -154.22273311694585      0.41385632230580494
-26.000000000000014       286.00000000000017       -145.00000000000006      0.6875908656180351
-24.000000000000014       284.0000000000001        -145.00000000000006      0.6875908657706516
-22.15331136344421        287.8256553122312        -144.99999999999997      0.6875908655820216
-26.02229219719441        284.16514085542155       -142.24161354325165      0.6950254849655289
-28.636397245783765       282.52444382781323       -144.99999999999997      0.6891425597936333
9.731019410337037         260.6253005288193        -149.99999999999997      0.41499436977010296
5.999999999999976         312.0000000000001        -145.00000000000006      0.6646190725369848
3.89079338311298          314.4923040027898        -144.99999999999997      0.6581816088970341
4.842407780564311         311.7152713009374        -141.53901831323492      0.6641049950696325
7.999999999999989         314.00000000000017       -145.00000000000006      0.6646190724246005
-24.000000000000057       314.00000000000017       -144.99999999999997      0.6875908626039897
-26.00000000000003        312.0000000000001        -145.00000000000006      0.6875908625394606
-21.524066696281956       309.51894994444996       -144.99999999999997      0.6875908633002491
-25.13535592738213        313.335141653926         -140.18554687499994      0.6538885514355744
-27.19560605395458        316.76783808886546       -144.99999999999997      0.631094530524649
157.25901739576028        287.82144543105596       -149.99999999999997      0.2947156269641566
154.59872584817091        286.14728565036893       -150                     0.2978675646670305
156.84785896187842        288.3589983939487        -153.32417486890233      0.2948608551170156
158.29795793299212        283.77603632903674       -150                     0.2943627484764689
142.79870894409945        287.77535394006776       -149.99999999999997      0.3135332110411189
141.79799832348905        283.77515432829637       -150                     0.31585967212839666
144.42282622802298        286.3736460673935        -156.1977166125036       0.3105179621146602
146.94247017375105        283.8807842825856        -150                     0.30797176220578215
146.16343917896148        279.6670640569787        -155.1352113897143       0.3092686613297566
9.831527092940808         310.15984213544834       -145.00000000000006      0.6646190725822144
10.305382871379173        310.8475629429383        -142.1023135888615       0.6621596962444215
7.24727265400117          317.1925175508393        -141.94893712335215      0.6476967857600365
-172.37704017204342       172.26661419334272       -136.2931051203546       0.5133867589949852
-124.00000000000006       178.00000000000014       -145.00000000000006      0.6053112813715974
-126.00000000000006       176.00000000000017       -145.00000000000006      0.6053112813189753
-121.5639971801196        173.5265911645886        -144.99999999999997      0.6117914445053796
-123.17290665868745       179.08134968575462       -141.76273083796823      0.6126945985019145
-127.7638388973941        179.77103632893306       -144.99999999999997      0.6053112812591828
-145.12208656416357       170.74146628516354       -144.99999999999997      0.5782120992143395
-125.99999999999997       229.99999999999994       -144.99999999999997      0.5976059341766496
-125.84026468530102       227.9154647050622        -141.48735355079302      0.6168233370607349
-125.06590440140911       224.37631076632897       -144.99999999999997      0.6204306397531297
-121.91067516751347       228.1642038716762        -144.99999999999997      0.6203504750284896
-123.99999999999997       232                      -144.99999999999997      0.5976059342134273
-119.89143145827006       233.37947182563855       -141.18997429713718      0.6211433408233235
-129.5564207115325        224.62432796005166       -144.99999999999997      0.614041553454907
-131.23375218416126       229.9999999999999        -144.99999999999991      0.5976059338939229
-130.04097009295376       232.05627748996105       -142.44287421734114      0.6044624243254867
-126.02916499406729       233.92037999572761       -140.52124799936058      0.6119086621031437
-128.1721568805863        234.18245722388406       -144.99999999999997      0.5976059338937673
-123.99999999999997       236.96135976441684       -144.99999999999997      0.5976059339563115
-131.8219655321067        229.78922847598895       -139.35294393195304      0.610203298076755
-139.69411593435666       174.00632348950748       -137.91992187499997      0.5926220377782877
-176.00000000000006       312.0000000000001        4.9999999999999805       0.6357124838701839
-176.00000000000006       307.0386402355829        5                        0.6357124847377895
-171.5243459883601        309.51906231694284       4.999999999999999        0.6357124852747857
-176.41579722078015       309.6272750293665        10.080538444855998       0.5635873500382245
-180.37479147333684       310.74645176499104       5                        0.5388581504474088
-174.00000000000009       314.00000000000017       5                        0.6357124839532541
-171.25640679108005       315.216271902445         9.61214409178607         0.5744624358680277
-177.24566347136042       316.7959435295211        5                        0.5365212617113185
-171.1018186547534        317.29485097925544       4.999999999999999        0.574479536684927
-171.51089252436904       323.06196961434466       5                        0.53229406091047
-177.64764748643708       316.60910993291196       9.912104186604644        0.5254754888080915
-180.99999999999997       323.59999999999997       5                        0.47427344144175965
-146.4317561082221        313.2555066598649        0                        0.7378405066202623
-140.77150739632916       314.323522699646         0                        0.7771515776792304
-146.8928856979262        311.4548792198348        -3.477671242971376       0.7411441793628551
-142.31098947961328       317.94100244130703       -4.439212791515975       0.748177125684776
-145.00168733214417       321.2473106383655        0                        0.7148127921049761
-141.43104822976474       308.7003307818117        0                        0.7965567705459323
-158.00000000000003       314.00000000000017       4.9999999999999805       0.6357124876569851
-156.00000000000003       312.0000000000001        4.9999999999999805       0.6357124881287249
-159.15168658708217       315.1788801798373        10.0270141545759         0.6320254450932299
-159.5411948049443        310.4486741400124        5                        0.6357124875371866
-154.55210115489075       317.05256055335894       5                        0.6610981472918629
-176                      286.00000000000017       4.9999999999999805       0.6357124870471377
-172.1623373321693        287.8166942349409        5                        0.6357124876966634
-173.36369062504218       288.3394588393949        8.673368153442695        0.6180460025518175
-174.00000000000003       284.0000000000001        4.9999999999999805       0.6357124874044285
-156.00000000000003       286.00000000000017       4.9999999999999805       0.6357124917815619
-155.12316408701716       284.96586469916406       7.43633700746629         0.7217809729834422
-158.00000000000003       284.0000000000001        4.9999999999999805       0.6357124915607341
-153.69390364250842       282.69602655836746       4.999999999999999        0.7576286392956907
-156.3067398133118        278.9844736573983        5                        0.7530940111468619
-175.75643406429106       282.58897721510283       9.897442296570656        0.6052234953565704
-178.70164731941242       281.84094175416527       5                        0.5900634826590002
-175.79277225177447       227.1175618982431        0                        0.6635388786852987
-176.45102766244227       224.61358645050058       -4.486585388511994       0.6583574950461307
-176.64426441186941       232.18486165702745       0                        0.6581638155889095
-171.07590113756712       227.6561215639781        -7.3558502635657055      0.6949784878104153
-181.86275168498727       229.25627324663324       0                        0.6240401808447446
-171.26830446594354       229.87882771248462       0                        0.6951133415547679
-155.99999999999994       258                      4.999999999999992        0.7489457776450347
-157.99999999999997       260                      4.999999999999992        0.7489457772969325
-159.54133866479313       256.4486999713867        4.999999999999999        0.7489457765931642
-158.15272363815518       257.1293708533223        8.711691701517495        0.7847508108876314
-152.30081852799893       205.32121667410757       0                        0.8178790689123974
-156.01751922040987       207.9988447157428        0                        0.7924509055390392
-153.5844336060852        208.17182695867305       -5.109527226544907       0.8111414865791735
-155.95264705793042       202.84118693231497       0                        0.7850938128396158
-160.23603467527303       205.97659174467978       0                        0.7576397035440567
-186                      316                      5                        0.47204965494655415
-184.23263383086763       311.9286956603056        12.920767762102566       0.49141916438260064
144                       312.0000000000001        -145.00000000000006      0.4366120417921593
141.99999999999997        314.00000000000017       -145.00000000000006      0.4366120417858563
140.45860020216026        310.4487113556735        -144.99999999999997      0.4366120420486954
143.7276697245191         313.0257648186701        -140.62675369295837      0.41914128742778295
145.42319014910777        317.05153938471733       -144.99999999999997      0.4091900005228023
160.90544836997438        286.07977147020847       -150                     0.29153443600709833
-26.000000000000004       258                      -144.99999999999997      0.7733089061336158
-24                       260                      -144.99999999999997      0.7733089061200847
-27.953170376939617       261.75163665318496       -144.99999999999997      0.7472778038732991
-25.553356929717268       257.59152976456653       -139.6775427704946       0.7612112849215897
-21.52665262448726        255.52098238603733       -144.99999999999997      0.7733089064294922
-6.0000000000000115       286.00000000000017       -145.00000000000006      0.6875908662323394
-8.00000000000001         284.0000000000001        -145.00000000000006      0.6875908663225252
-3.7109064723711076       282.74715203277736       -144.99999999999997      0.7136209107183955
-6.63132298667988         287.43551450838777       -141.50319998585672      0.7033347961590368
-9.779772956519805        287.7928819901671        -144.99999999999997      0.6875908659266087
-7.999999999999991        260                      -144.99999999999997      0.7733089065811506
-5.99999999999996         258                      -144.99999999999997      0.7733089066080161
-9.365404221410964        259.6762414291663        -140.10932912746392      0.7708628900484226
-9.541399797839777        256.4487113556733        -144.99999999999997      0.7733089066641189
-4.978484235475188        262.023206165973         -144.99999999999997      0.7650378866935741
-25.999999999999993       232                      -144.99999999999997      0.7733089071285911
-28.053318975053124       228.04676114703898       -144.99999999999997      0.7705398946091141
-23.99999999999999        229.99999999999997       -144.99999999999997      0.7733089071891989
-29.451753038823256       230.31218945047556       -140.20464714649924      0.7694553663198902