% Model:              9.mph
% Version:            COMSOL 6.0.0.318
% Date:               Mar 28 2023, 15:47
% Dimension:          3
% Nodes:              41061
% Expressions:        1
% Description:        Electric potential
% Length unit:        µm
% x                       y                        z                        V (mV)
-160.67583180946937       313.99227205652124       -142.17869799082013      0.37963274839588307
-158.00000000000003       314.00000000000017       -145.00000000000006      0.38517880526634135
-159.5411948049443        310.4486741400124        -144.99999999999997      0.38517880533003424
-163.23375218416135       314.0000000000001        -144.99999999999997      0.3851788050299571
-160.80702609816547       317.12982997792454       -144.99999999999997      0.3733533748075397
-144.00000000000003       286.00000000000017       -145.00000000000006      0.4383095064760961
-146.40368212448325       282.9842702290749        -144.99999999999997      0.4396417403012824
-142                      284                      -145.00000000000006      0.43830950659589163
-146.070656374589         285.1875320636697        -141.83919502008467      0.4381850808310256
-148.67370318097892       285.4954045621962        -144.99999999999997      0.43107481650847934
-147.0262822172944        288.5940609760373        -144.99999999999997      0.4317331604065738
-153.71094476296932       282.74713179761045       -144.99999999999997      0.41890649302971866
-156.00000000000003       286.00000000000017       -145.00000000000006      0.3851788078274149
-156.87864015716735       282.00042271232445       -141.5369328012095       0.4139402322103958
-150.54028937640726       286.25793377375294       -141.06900667215845      0.4266584870457902
-156.39385073539697       278.7128642548888        -144.99999999999997      0.42129577919097455
-158.00000000000003       284.0000000000001        -145.00000000000006      0.38517880780003605
-161.54238841918075       278.01948712552013       -144.99999999999997      0.41079611250000025
-156.9787017375941        321.0096337699929        -140.50260042215845      0.37118134814457354
-156.00000000000003       312.0000000000001        -145.00000000000006      0.3851788054037009
-159.15820932175995       306.6164621599202        -140.4772126055396       0.3889700433912716
-154.7174836280066        314.6742171613706        -140.50260042215848      0.38789246455557447
-154.5768297791887        317.0506874350492        -144.99999999999997      0.383819554136288
-151.35166101945347       313.61738430733624       -144.99999999999997      0.3969281562928651
-146.1092066168883        314.4923040027901        -144.99999999999997      0.41088237786201437
-148.7720507033282        319.2282078050387        -144.99999999999997      0.3919324594981965
-144.626287218973         314.7628525430419        -141.30052167184422      0.41229979711485515
-144.00000000000003       312.0000000000001        -145.00000000000006      0.4383095045808224
-142                      314.00000000000017       -145.00000000000006      0.4383095046220119
-148.16482478893738       309.972345602204         -144.99999999999997      0.4121959756782045
-143.63122509940195       317.73815453587605       -144.99999999999997      0.4076381688221452
-138.99758372794426       318.79325254587104       -144.99999999999997      0.4115889747524048
-144.22415959594656       308.52613744431795       -140.58096809980796      0.4232987540555164
-136.7662478158387        314.0000000000002        -145.00000000000009      0.43830950494204857
-140.07458356860664       313.2613250798076        -138.66675321519864      0.4216918352418004
-140.1937188322137        310.15316134058963       -145.00000000000006      0.4383095049194067
-160.38200987292973       311.2255956582738        -135.97135042215842      0.38262805730356203
-175.99999999999997       258                      -144.99999999999997      0.42274033646236575
-174.00000000000003       260                      -144.99999999999997      0.42274033648137577
-175.39085957739832       258.9557059350984        -142.19420061434698      0.40527938636942706
-171.5240666962821        255.51894994444996       -144.99999999999997      0.42274033691204455
-177.95445912512633       261.7360707424795        -144.99999999999997      0.38966120835868967
-174.00000000000009       314.00000000000017       -144.99999999999997      0.38517880409775
-176.00000000000006       312.0000000000001        -145.00000000000006      0.3851788040609571
-173.7673317998306        311.8662569138189        -139.89470795164183      0.357190738662535
-177.1956060539556        316.7678380888708        -144.99999999999997      0.3359310454400242
-171.52434598836038       309.519062316943         -144.99999999999997      0.38517880487056116
-126.00000000000003       314.00000000000017       -145.00000000000006      0.4383095051765161
-124.00000000000003       312.0000000000001        -145.00000000000006      0.4383095052306137
-121.52446352217781       315.60388761909775       -144.99999999999997      0.4246581088091004
-124.81928212578475       317.0910757292173        -141.45567018503618      0.4234121055754666
-129.72139602551994       311.8441931840972        -139.6988240186803       0.43397633788870194
-127.54977665712066       310.45920733703633       -145.00000000000006      0.4383095053195061
-155.99999999999994       258                      -144.99999999999997      0.4227403375992419
-157.99999999999997       260                      -144.99999999999997      0.42274033756035123
-156.49413840342984       256.9712721803753        -141.60963761342296      0.4384691988173259
-154.95950544748484       262.04899164308415       -144.99999999999997      0.4418917661544114
-159.54138599444425       256.4487088464145        -144.99999999999997      0.42274033738814765
-143.4466526853475        291.3749703647239        -142.10669619877035      0.43699100192261625
-157.4188000901589        288.2370067281157        -138.21201072267226      0.40910068678593003
-159.8076334650993        287.8099413762862        -144.99999999999997      0.3851788073534328
-154.96222363064896       289.486404557322         -141.3926517893468       0.40785307664778614
-163.55156171214085       285.4572455242132        -135.93750000000003      0.40163120939905406
-165.16687066495197       281.4287860796268        -140.71729298701962      0.3988950897462182
-140.20430912059226       287.81712926050875       -145.00000000000006      0.43830950646152816
-136.76624781583865       284                      -145.00000000000006      0.4383095067699327
-141.45536289264746       286.6472754044766        -139.73712672762875      0.44553774595076784
-149.2295914915791        291.18528991526944       -137.27341503295065      0.42810520571050814
-153.84554542936522       282.07030881154384       -137.04590410810968      0.4282187478954019
-142.12938493525021       281.6392841913165        -138.47392837726758      0.4530487563573207
-147.98741057992325       282.87713068009117       -137.20571418863378      0.4411333360534107
-144                      258                      -144.99999999999997      0.498231498612264
-141.99999999999994       260                      -144.99999999999997      0.4982314985766846
-141.27531577255436       256.25742834505013       -141.0714942604033       0.49073851958086273
-140.19371883221362       256.1531613405894        -144.99999999999997      0.4982314991187024
-146.95631751873285       261.37429131720717       -140.7990533876258       0.46994753921519056
-146.28302184744152       261.16975142117184       -144.99999999999997      0.47341108601856086
-126.00000000000003       284                      -145.00000000000006      0.4383095071932302
-124.00000000000003       286.00000000000017       -145.00000000000006      0.43830950720179473
-128.17215688058565       288.18245722388343       -145.00000000000006      0.4383095067371264
-127.2283450250952        283.46337012446037       -140.18228700774267      0.4643604452029156
-121.33156821331181       281.73830204329363       -144.99999999999997      0.46902616696109095
-152.0025974704704        308.3499242396668        -138.32684868029213      0.403375066572229
-174                      229.99999999999997       -144.99999999999997      0.42274033807676215
-175.99999999999997       232                      -144.99999999999997      0.4227403379347819
-172.62885489878107       231.92285286527834       -141.60156249999997      0.4198534063950276
-172.15331136344415       233.8256553122311        -144.99999999999997      0.4227403381356988
-122.65439517532216       203.5677835326865        -150                     0.32077582857142456
-122.49445536792551       207.65546007242776       -150                     0.32212745469000964
-119.84458275968778       201.71833659914438       -155.62254636345705      0.3256339848881964
-125.13483641825245       206.74119858823929       -155.1673381775334       0.31561079264695846
-128.22252371445154       206.00208082462566       -150                     0.30997888818527697
-174.48821390596018       227.192762441329         -139.90234374999997      0.41565185863596915
-178.03715463392146       228.04513313367153       -144.99999999999997      0.4056342103125657
-171.5245983983496        201.5198248145737        -144.99999999999997      0.4492014614489862
-176.0000000000001        204.00000000000014       -145.00000000000006      0.4492014609967555
-171.32837861464188       200.12100666376517       -139.27534210206426      0.438723561675957
-174.00000000000014       206.00000000000014       -144.99999999999997      0.4492014610537494
-176.29543205911085       204.44229638795747       -136.94196995417636      0.42173033023881606
-177.67251807359904       208.05875170275715       -144.99999999999997      0.4200173935242499
-176                      286.00000000000017       -145.00000000000006      0.3851788060619978
-174.00000000000003       284.0000000000001        -145.00000000000006      0.3851788062035951
-172.1623373321693        287.8166942349409        -144.99999999999997      0.3851788063530846
-175.50060011777913       289.1828044025344        -140.17314712726753      0.36968704075237463
-180.1523698726562        283.0176968874627        -140.56297616134233      0.3542055856350848
-178.6391852498301        282.5299879000436        -144.99999999999997      0.3607815551605586
-144                      232                      -144.99999999999997      0.49823150017522433
-141.99999999999994       229.99999999999994       -144.99999999999997      0.498231500285283
-140.20430912059248       233.81712926050847       -144.99999999999997      0.4982315003195072
-143.77379005770214       234.73500815916415       -139.5137987834406       0.49177102709909976
-125.99999999999997       260                      -144.99999999999997      0.4982314999412196
-123.99999999999997       258                      -144.99999999999997      0.4982315000198353
-126.57512440260888       259.7860766313704        -141.75620662405944      0.5027821659943796
-127.54977665712053       256.4592073370361        -144.99999999999997      0.49823149989829957
-122.58006832648375       261.7808918596948        -144.99999999999997      0.5045065032405534
-176.0000000000001        178.00000000000014       -145.00000000000006      0.44920146098551916
-177.8254405043664        178.16384565473984       -141.54221209281206      0.4179217722955224
-182.12943370143623       177.01278181157625       -144.99999999999997      0.39883851738138726
-177.68993677494908       174.0083253029043        -144.99999999999997      0.41477781752576914
-180.2268104256959        181.3725581126618        -144.99999999999997      0.4120180892081161
-176.0000000000001        182.96135976441713       -144.99999999999997      0.44920146119517695
-173.56500859015327       184.34676686156598       -140.8453324816598       0.4356216660458384
-174.0000000000001        176.00000000000017       -145.00000000000006      0.44920146100333497
-172.11788581547955       179.86761793398713       -144.99999999999997      0.4492014614244274
-173.88507252116912       179.1102652670962        -138.8174698509865       0.4279235858157051
-179.01947331219793       185.99951718890583       -135.52075845882715      0.41177736092454204
-168.7662478158387        176.00000000000014       -145.00000000000006      0.44920146155450724
-158.00000000000009       176.00000000000017       -145.00000000000006      0.44920146250108683
-156.00000000000009       178.00000000000014       -145.00000000000006      0.44920146260657084
-159.81282739594607       179.81707812175617       -144.99999999999997      0.4492014623729394
-156.3370415559206        176.1244968494392        -140.8584542528913       0.4602608750952728
-161.09882047738034       175.26751580345982       -140.46875000000003      0.4506842187711291
-153.6168093003069        174.91908648326958       -144.99999999999997      0.4655747543426498
-156.16782519025975       171.3541526980626        -144.99999999999997      0.4585987181422372
-117.1408182820501        205.14939878733506       -149.99999999999997      0.33409424874269805
-158.00000000000009       206.00000000000014       -145.00000000000006      0.4492014620655043
-156.00000000000009       204.00000000000014       -145.00000000000006      0.4492014621678279
-157.26607043374938       206.82259571836656       -141.7743905414195       0.46290972567837035
-159.54134725042582       202.44870224860333       -144.99999999999997      0.44920146191296334
-157.91199805790652       202.1250942188908        -141.3117218017578       0.459679043221767
-155.12788612002208       208.0026643010259        -144.99999999999997      0.4678249954877077
-151.88088448869235       202.57229767674608       -140.1656341552734       0.47869852843215416
-152.36103904031324       207.1555560414924        -141.7965387271034       0.4772649972748509
-157.99999999999997       229.99999999999997       -144.99999999999997      0.42274033954037454
-155.99999999999997       232                      -144.99999999999997      0.42274033962926344
-159.77977295651974       233.7928819901669        -144.99999999999997      0.4227403390929138
-156.08810609104455       229.81563012138588       -139.39040332733026      0.45648179634060115
-153.65208898344207       228.25598474978457       -144.99999999999997      0.4608779680736079
-144.00000000000006       178.00000000000014       -144.99999999999997      0.5122619823150903
-146.3759630720211        175.10258238684494       -144.99999999999997      0.48822721206305625
-142.00000000000009       176.00000000000014       -144.99999999999997      0.5122619823258965
-145.92086342280265       177.455321306791         -140.46874999999994      0.4902788484980628
-142.84493106147903       179.78446886330417       -140.46874999999994      0.49987235418156734
-140.22409834937378       179.7608774998712        -144.99999999999997      0.5122619825875805
-144.00000000000006       204.00000000000014       -145.00000000000006      0.5122619827626638
-142.00000000000006       206.00000000000014       -145.00000000000006      0.5122619828293543
-146.29037849574888       207.30097367359858       -144.99999999999997      0.49551464854917326
-141.467425763924         204.3233848579498        -140.98753593262302      0.5071019493051074
-139.52360627161653       201.5187362404           -144.99999999999997      0.5122619829909129
-124.00000000000006       204.00000000000014       -144.99999999999997      0.5122619838222074
-126.00000000000006       206.00000000000014       -145.00000000000006      0.512261983798573
-124.96838977411325       204.9239542346459        -141.30363663793946      0.5254982569583053
-122.00709019151695       207.88817304860626       -144.99999999999997      0.5311009720944241
-127.54141670254606       202.44871588901773       -144.99999999999997      0.5122619835835297
-145.87821007513335       231.0932100898846        -138.2714915392692       0.4883148123603997
-145.80673388047464       228.5420596337227        -144.99999999999997      0.48807892232395717
-184.6762800130478        179.80877714021284       -135.39940737694292      0.38871970464869915
-180.70018585007725       172.69759781208106       -138.39570202166578      0.39815897486705104
-4.311064124751336        283.4688516847322        -150                     0.35429643507445924
-6.210575272423216        285.62776462002915       -154.686613425745        0.3547346013013656
-10.179379774669192       283.34863657495066       -150                     0.3590183678595728
-7.283016745940715        289.3077597468559        -150                     0.3558862800488944
-5.80766476889254         257.13325044673417       -150                     0.35394438062287925
-5.838902495794946        262.8392782812245        -149.99999999999997      0.3546607931846361
-5.645571104661331        259.2261090838731        -156.63155992059222      0.3530012226246379
-12.00231220637032        260.00502105735194       -149.99999999999997      0.35936265678186924
-6.948502017868183        279.34152308899246       -150                     0.35625697618581026
-6.00000000000002         312.0000000000001        -145.00000000000006      0.5997607143395743
-8.00000000000001         314.00000000000017       -145.00000000000006      0.5997607141992728
-9.541385994444349        310.4487088464148        -144.99999999999997      0.5997607145284692
-5.620102601926735        311.4718447815005        -142.09421766697383      0.5892897711056372
-4.576829779176556        317.0506874336923        -144.99999999999997      0.5714828813947187
-0.692375168066415        260.12825805892396       -150                     0.3518527125139654
4.743014204280773         258.0010478098414        -150                     0.3505478990528354
7.164768665962059         259.68576395995905       -158.29885942347957      0.3490847006179359
0.5649318387832013        257.9431737490562        -158.44546623389166      0.3495021742375411
4.6061802093743776        263.353467104021         -150                     0.35114696723166
8.877361449514607         258.24407776831526       -154.22273311694585      0.3503955133547161
-26.000000000000014       286.00000000000017       -145.00000000000006      0.599760716568544
-24.000000000000014       284.0000000000001        -145.00000000000006      0.5997607166993829
-22.15331136344421        287.8256553122312        -144.99999999999997      0.5997607165353146
-26.02229219719441        284.16514085542155       -142.24161354325165      0.6061050983828815
-28.636397245783765       282.52444382781323       -144.99999999999997      0.6005461312910558
9.731019410337037         260.6253005288193        -149.99999999999997      0.351336767669642
5.999999999999976         312.0000000000001        -145.00000000000006      0.5793071469192691
3.89079338311298          314.4923040027898        -144.99999999999997      0.5719813614796013
4.842407780564311         311.7152713009374        -141.53901831323492      0.5777036858435386
7.999999999999989         314.00000000000017       -145.00000000000006      0.5793071468084464
-24.000000000000057       314.00000000000017       -144.99999999999997      0.5997607136530012
-26.00000000000003        312.0000000000001        -145.00000000000006      0.5997607136162356
-21.524066696281956       309.51894994444996       -144.99999999999997      0.5997607143374412
-25.13535592738213        313.335141653926         -140.18554687499994      0.5679396455381895
-27.19560605395458        316.76783808886546       -144.99999999999997      0.5466112431064964
157.25901739576028        287.82144543105596       -149.99999999999997      0.2313173505767124
154.59872584817091        286.14728565036893       -150                     0.23466869302406787
156.84785896187842        288.3589983939487        -153.32417486890233      0.2315022509306586
158.29795793299212        283.77603632903674       -150                     0.23105269811462573
142.79870894409945        287.77535394006776       -149.99999999999997      0.25036767732300985
141.79799832348905        283.77515432829637       -150                     0.2528169045317102
144.42282622802298        286.3736460673935        -156.1977166125036       0.24756354989066037
146.94247017375105        283.8807842825856        -150                     0.24501268897147824
146.16343917896148        279.6670640569787        -155.1352113897143       0.24653842804663137
9.831527092940808         310.15984213544834       -145.00000000000006      0.57930714694483
10.305382871379173        310.8475629429383        -142.1023135888615       0.5763570911307417
7.24727265400117          317.1925175508393        -141.94893712335215      0.5618539852885037
-172.37704017204342       172.26661419334272       -136.2931051203546       0.42289937567602126
-124.00000000000006       178.00000000000014       -145.00000000000006      0.512261983264464
-126.00000000000006       176.00000000000017       -145.00000000000006      0.5122619832104293
-121.5639971801196        173.5265911645886        -144.99999999999997      0.5191638157827718
-123.17290665868745       179.08134968575462       -141.76273083796823      0.5198531920308495
-127.7638388973941        179.77103632893306       -144.99999999999997      0.512261983148198
-145.12208656416357       170.74146628516354       -144.99999999999997      0.485385098523797
-125.99999999999997       229.99999999999994       -144.99999999999997      0.49823150142163974
-125.84026468530102       227.9154647050622        -141.48735355079302      0.520815028887
-125.06590440140911       224.37631076632897       -144.99999999999997      0.5252198182490717
-121.91067516751347       228.1642038716762        -144.99999999999997      0.5252129612873431
-123.99999999999997       232                      -144.99999999999997      0.4982315014347788
-119.89143145827006       233.37947182563855       -141.18997429713718      0.5265496492320273
-129.5564207115325        224.62432796005166       -144.99999999999997      0.518007865402181
-131.23375218416126       229.9999999999999        -144.99999999999991      0.49823150105039277
-130.04097009295376       232.05627748996105       -142.44287421734114      0.5063619239414006
-126.02916499406729       233.92037999572761       -140.52124799936058      0.515047263312263
-128.1721568805863        234.18245722388406       -144.99999999999997      0.49823150098656144
-123.99999999999997       236.96135976441684       -144.99999999999997      0.4982315009070256
-131.8219655321067        229.78922847598895       -139.35294393195304      0.5132386032781165
-139.69411593435666       174.00632348950748       -137.91992187499997      0.49933944044005185
-176.00000000000006       312.0000000000001        4.9999999999999805       0.49766547849252396
-176.00000000000006       307.0386402355829        5                        0.49766547932403393
-171.5243459883601        309.51906231694284       4.999999999999999        0.4976654798442232
-176.41579722078015       309.6272750293665        10.080538444855998       0.4277171427614392
-180.37479147333684       310.74645176499104       5                        0.4049249408675139
-174.00000000000009       314.00000000000017       5                        0.49766547857187227
-171.25640679108005       315.216271902445         9.61214409178607         0.43805885535726946
-177.24566347136042       316.7959435295211        5                        0.402394455924509
-171.1018186547534        317.29485097925544       4.999999999999999        0.4384099894996028
-171.51089252436904       323.06196961434466       5                        0.3980394907689219
-177.64764748643708       316.60910993291196       9.912104186604644        0.3912814177565578
-180.99999999999997       323.59999999999997       5                        0.3456108534881739
-146.4317561082221        313.2555066598649        0                        0.6228906119033741
-140.77150739632916       314.323522699646         0                        0.6617652531741082
-146.8928856979262        311.4548792198348        -3.477671242971376       0.6263695862669256
-142.31098947961328       317.94100244130703       -4.439212791515975       0.6328007896040764
-145.00168733214417       321.2473106383655        0                        0.5992761366064789
-141.43104822976474       308.7003307818117        0                        0.6815405991977473
-158.00000000000003       314.00000000000017       4.9999999999999805       0.49766548215058604
-156.00000000000003       312.0000000000001        4.9999999999999805       0.4976654826090833
-159.15168658708217       315.1788801798373        10.0270141545759         0.4938292388061533
-159.5411948049443        310.4486741400124        5                        0.4976654820345704
-154.55210115489075       317.05256055335894       5                        0.522510663958224
-176                      286.00000000000017       4.9999999999999805       0.49766548160319235
-172.1623373321693        287.8166942349409        5                        0.49766548221813756
-173.36369062504218       288.3394588393949        8.673368153442695        0.4806332074319643
-174.00000000000003       284.0000000000001        4.9999999999999805       0.49766548194760046
-156.00000000000003       286.00000000000017       4.9999999999999805       0.4976654861527311
-155.12316408701716       284.96586469916406       7.43633700746629         0.5817135354607248
-158.00000000000003       284.0000000000001        4.9999999999999805       0.4976654859404094
-153.69390364250842       282.69602655836746       4.999999999999999        0.6168853485271351
-156.3067398133118        278.9844736573983        5                        0.6129148861743311
-175.75643406429106       282.58897721510283       9.897442296570656        0.4688411120000863
-178.70164731941242       281.84094175416527       5                        0.45488924460724156
-175.79277225177447       227.1175618982431        0                        0.5499718862033526
-176.45102766244227       224.61358645050058       -4.486585388511994       0.5448543032788637
-176.64426441186941       232.18486165702745       0                        0.5443042921356789
-171.07590113756712       227.6561215639781        -7.3558502635657055      0.582153397004614
-181.86275168498727       229.25627324663324       0                        0.5094099128876816
-171.26830446594354       229.87882771248462       0                        0.5820234878329167
-155.99999999999994       258                      4.999999999999992        0.6244557749876658
-157.99999999999997       260                      4.999999999999992        0.6244557746542557
-159.54133866479313       256.4486999713867        4.999999999999999        0.6244557741038533
-158.15272363815518       257.1293708533223        8.711691701517495        0.6527197491236744
-152.30081852799893       205.32121667410757       0                        0.7062699124938748
-156.01751922040987       207.9988447157428        0                        0.6807430026169856
-153.5844336060852        208.17182695867305       -5.109527226544907       0.6995415652049911
-155.95264705793042       202.84118693231497       0                        0.6734495138600146
-160.23603467527303       205.97659174467978       0                        0.6458097038722358
-186                      316                      5                        0.3436348982239823
-184.23263383086763       311.9286956603056        12.920767762102566       0.3582759816504995
144                       312.0000000000001        -145.00000000000006      0.37387040885374034
141.99999999999997        314.00000000000017       -145.00000000000006      0.3738704088636609
140.45860020216026        310.4487113556735        -144.99999999999997      0.37387040924804676
143.7276697245191         313.0257648186701        -140.62675369295837      0.34794560054075424
145.42319014910777        317.05153938471733       -144.99999999999997      0.33620089272704407
160.90544836997438        286.07977147020847       -150                     0.22794476068193442
-26.000000000000004       258                      -144.99999999999997      0.6609170130451452
-24                       260                      -144.99999999999997      0.6609170130563554
-27.953170376939617       261.75163665318496       -144.99999999999997      0.6468174917801413
-25.553356929717268       257.59152976456653       -139.6775427704946       0.6584660786915452
-21.52665262448726        255.52098238603733       -144.99999999999997      0.6609170131850398
-6.0000000000000115       286.00000000000017       -145.00000000000006      0.5997607170381376
-8.00000000000001         284.0000000000001        -145.00000000000006      0.599760717119732
-3.7109064723711076       282.74715203277736       -144.99999999999997      0.6223459662263469
-6.63132298667988         287.43551450838777       -141.50319998585672      0.613727925698694
-9.779772956519805        287.7928819901671        -144.99999999999997      0.5997607167685876
-7.999999999999991        260                      -144.99999999999997      0.6609170134905433
-5.99999999999996         258                      -144.99999999999997      0.6609170135104944
-9.365404221410964        259.6762414291663        -140.10932912746392      0.6655133779605787
-9.541399797839777        256.4487113556733        -144.99999999999997      0.6609170134743563
-4.978484235475188        262.023206165973         -144.99999999999997      0.6604370715176255
-25.999999999999993       232                      -144.99999999999997      0.6609170132565798
-28.053318975053124       228.04676114703898       -144.99999999999997      0.6656208692863358
-23.99999999999999        229.99999999999997       -144.99999999999997      0.6609170133244592