% Model:              9.mph
% Version:            COMSOL 6.0.0.318
% Date:               Mar 12 2023, 01:18
% Dimension:          3
% Nodes:              40982
% Expressions:        1
% Description:        Electric potential
% Length unit:        µm
% x                       y                        z                        V (mV)
-6.000000000000072        178.0000000000001        4.999999999999963        52.44015448568222
-9.762365924686485        179.77010129940788       5                        52.440154501809275
-8.000000000000075        176.00000000000017       4.999999999999963        52.44015448361131
-8.28710989555618         181.30979572398508       9.566650390624982        51.73393228426654
-13.262281963165416       179.81820042917025       9.566650390625002        51.73614940549297
-6.000000000000076        182.96135976441698       4.999999999999963        52.4401545110765
-3.4876067236036623       181.56409715167797       8.96484374999998         51.52213606617724
25.99999999999996         178.0000000000001        4.999999999999963        51.28885242664579
23.999999999999957        176.00000000000017       4.999999999999963        51.28885242721155
28.459230049895048        173.52446862978258       5                        49.94210254863787
26.29160412390771         176.02463381645393       8.486617737615717        50.294655062388635
22.23616110260593         179.77103632893312       5                        51.288852443537316
127.7875766684129         179.76632460296707       5                        47.360470543662636
125.99999999999994        176.00000000000017       4.999999999999963        47.36047054411778
128.92844555434309        179.7712281187526        7.805353243156414        47.36880010953778
123.99999999999993        178.0000000000001        4.999999999999963        47.36047054438155
-8.000000000000075        206.00000000000014       4.999999999999963        52.44015468231407
-6.000000000000077        204.00000000000017       4.999999999999963        52.44015466692274
-9.94058343384101         205.49237836965483       9.672851562499996        54.08871634409078
-9.541338664793136        202.4486999713869        5                        52.44015464979115
-13.233752184161428       206.00000000000014       5                        52.44015467547938
-9.020875668940285        210.910915625293         5                        56.323346372197946
-6.1222494949545165       201.86530476716115       8.823242187499979        53.14574105835049
-24.000000000000078       176.00000000000017       4.999999999999963        52.44015447377472
-22.212423331587203       179.76632460296693       5                        52.44015449763959
-22.703822907547316       176.93969830576978       10.543736441153056       51.20356399977293
-18.76624781583873        176.0000000000001        4.999999999999963        52.44015448670791
-26.000000000000078       178.0000000000001        4.999999999999963        52.44015447801114
-22.84958721371435        171.18932837997772       5                        50.71909568477496
-27.929429103335313       171.1111383841656        11.513671875000002       50.231987957489984
-26.700462735178142       183.38032868525067       10.026855468749998       51.500271469654514
-30.21439866570297        181.31343126970302       5                        51.21994508726117
-27.480111285429757       177.43193545590012       10.768260806526554       50.916189997833584
-27.70535362856556        174.0038647150942        5                        50.82612105256379
-32.15739856770252        177.0462034588183        5                        50.6205997619664
-26.00000000000007        204.00000000000017       4.999999999999963        52.440154666130056
-24.000000000000092       206.00000000000017       5                        52.440154682914375
-28.78062001143757        207.686806582527         10.8056640625            54.5219346769834
-27.262050079751234       203.1416030140032        10.72058057716995        53.4422977100435
-21.473659441533183       200.99205492459453       11.493195274645268       53.18640749057726
-21.526027971914807       201.52051522712256       5                        52.440154642385146
-27.72111540161447        208.08983934720032       5                        54.61485193693503
5.99999999999993          178.0000000000001        5                        51.28885245292118
7.999999999999971         176.0000000000001        5                        51.28885244865182
6.915677597022557         177.68587801582143       9.412691525473079        50.86681794618628
3.711095237996993         175.2663853540875        5                        50.81119085987876
9.775901650626224         179.76087749987124       5                        51.288852458164
13.233752184161323        176.0000000000001        5                        51.28885244714517
5.0848470312431004        170.57138399007243       5                        50.343894812453975
12.633826291503285        173.01158442083417       11.065876177012175       50.33423547889763
1.9848758295597153        176.09905689620138       7.78559718569182         50.85724611446313
3.8564274868295425        182.1457894385242        8.686022668320053        51.201563035600586
5.999999999999931         182.9613597644169        5                        51.28885246822995
-8.588887731054697        173.98335892559433       10.735796921913414       50.945406716331206
-6.097169692691153        171.19119292426458       5                        50.726291247498885
-3.648175447286945        174.70080510810473       5                        51.103010692506686
-10.733798043761773       170.49822615135474       5                        50.73641541500462
-13.23375218416142        176.00000000000006       4.999999999999961        52.44015448893214
-1.2362932937285631       179.97267446303772       12.350288068012253       51.11333555601512
-10.574219791112286       179.65823168355314       14.133300781250002       51.25243271214073
122.43455550938417        177.29363353544377       11.467553067558493       47.420473071992106
122.29257667547927        174.0294755241846        5                        47.40630744393133
-7.46292288205352         211.24177500854438       9.672851562499996        56.37256520171014
5.999999999999956         204.00000000000017       4.999999999999963        51.288852571161854
7.999999999999957         206.00000000000017       4.999999999999963        51.288852576802796
7.647268805562837         204.19465570280772       8.907341982671934        52.42304289949326
10.476393728383684        201.51873624039993       5                        51.288852543822266
3.653832705274347         207.27254920394475       5                        53.64752491847958
-5.999999999999991        232                      4.999999999999993        92.50866279899172
-4.261170915125846        229.8372924671695        7.561700994318179        71.94756972631112
-7.999999999999991        229.99999999999997       4.999999999999993        92.50866279899172
-3.0918068033444257       227.90222305981928       5                        68.49436992079332
5.999999999999997         232                      4.999999999999993        57.61109281269504
4.4193803638134455        230.33635606328147       5                        60.75694793949986
6.682423188249847         232.52637479218606       9.129423318827357        59.76047892768542
2.646522059111973         233.59817219314124       5                        63.61216028750106
8.00000000000001          229.99999999999997       4.999999999999993        57.61109279657005
9.807617192180262         233.8408147256269        4.999999999999993        57.61109276899086
11.373164261085238        230.49165328940964       7.627625038266923        57.65800939152715
126                       229.99999999999997       4.999999999999993        47.41178917214249
124.00000000000003        232                      4.999999999999993        47.4117891724485
121.92813282038709        228.0386850689282        5                        47.528479196761424
122.76963850709103        228.4676681120601        8.310815323833578        47.520362075234516
143.99999999999994        178.0000000000001        4.999999999999963        47.36047053921756
141.99999999999991        176.00000000000017       4.999999999999963        47.360470539400914
142.97599053350018        180.41881700829413       9.79822164175968         47.30253727765072
140.2376340753135         179.77010129940788       5                        47.36047054060372
143.99999999999994        204.00000000000017       4.999999999999963        47.36047054247691
141.99999999999991        206.00000000000014       4.999999999999963        47.36047054268426
140.45866133520684        202.4486999713869        5                        47.36047054315802
144.44049717755476        204.18137450580372       10.606413990698119       47.3086266657866
144.98712358981052        207.9807095626367        5                        47.31231329428875
157.99999999999997        206.00000000000017       4.999999999999963        47.13167493171079
155.99999999999997        204.00000000000017       4.999999999999963        47.13167493187868
160.47267672528025        201.52138044487822       5                        47.13167493072768
159.09227740661075        204.0577994343737        9.886876476337745        47.16887014080817
141.99999999999997        229.99999999999997       4.999999999999993        47.41178916690061
144                       232                      4.999999999999993        47.41178916653842
140.1871726040541         233.8170781217559        5                        47.41178916774769
143.31628724048818        229.44241022044793       9.768332093035442        47.347284031536454
146.34624254543257        228.2804462458906        5                        47.32002981570661
128.1582807745038         230.13095411792398       8.877124926630193        47.45478990597023
127.88211418452076        233.86761793398705       5                        47.41178917107697
155.48005452956107        209.59417135124738       10.878347230882138       47.211244588965144
153.70576481529832        207.31073208376787       5                        47.214091637586314
156                       232                      4.999999999999993        47.14118887917353
154.2350768202592         228.6029405639169        5                        47.22098099004539
158                       229.99999999999997       4.999999999999993        47.14118887907028
153.77928020966314        229.49837032629142       9.649792158779256        47.23173770279416
156.8606047006774         234.02471203928408       9.402167120350155        47.1929089601035
159.80761719218023        233.8408147256269        4.999999999999993        47.14118887817817
-7.571442246871337        233.3876288809881        9.672851562499995        76.4470382983429
-9.812827395945796        233.8170781217561        5                        92.50866279899172
5.999999999999997         236.96135976441718       4.999999999999994        57.61109283652448
-1.424669712564608        203.71657405625345       5                        53.393375093701295
-3.6497788096865946       208.02774022200583       5                        54.7107373577265
-3.4287110553788946       204.87411384365043       11.088867187499996       53.886916876321706
-2.6400524092206723       200.96926815989661       5                        52.88838358807173
-6.244498989908955        199.7306095343221        12.646484374999998       52.99803957320094
-10.339828202888883       208.53605676792273       14.345703124999996       55.30153526296774
-22.11788581547932        233.86761793398705       5                        92.50866279899172
-23.99999999999999        229.99999999999997       4.999999999999993        92.50866279899172
-20.65757873565361        233.640503807411         9.216109531377654        80.18925225252771
-25.999999999999996       232                      4.999999999999993        92.50866279899172
-27.265200568941864       230.34907340108498       9.849853515625           70.34904708149878
-28.04223889631764        228.05132872157964       5                        69.94099824889624
-26.096325430399464       232.18694473748576       0                        48.35876898460793
-29.377551302494602       229.89707576705896       -4.53125                 48.4043972566524
-24.823434388921974       227.1584701300282        0                        48.25141888568907
-31.483901274587822       228.99598315520478       0                        48.47083371479142
-21.626037609552          258.7180501489992        0                        48.4253439590865
-25.360554692474047       257.25726735301          0                        48.551259952898356
-24.374773566898327       261.2520925806974        0                        48.52109811775733
-22.78689796108608        256.9943600739051        -4.7509488553711865      48.4423875584574
23.999999999999957        206.00000000000017       4.999999999999963        51.288852527010455
25.99999999999993         204.00000000000017       5                        51.28885252184528
27.733775765390902        207.9142417743841        5                        51.54380968576233
23.63472479156482         204.0783359124815        10.592201430745552       51.52429172597872
22.458583297453917        202.44871588901776       5                        51.28885252086661
123.99999999999993        204.00000000000017       4.999999999999963        47.36047054784711
120.00998438584809        201.04304923223435       5                        47.490788616723826
123.99999999999987        199.03864023558302       5                        47.360470546858444
121.7225021582827         204.6764364934412        10.201686576058597       47.494134265509594
125.99999999999991        206.00000000000017       5                        47.36047054765926
122.33642521075939        208.07979591532242       5                        47.48642662354065
128.7773783680422         199.26443876479928       10.375094524069816       47.40322229401705
118.283430142212          205.73984883501333       5                        47.54067243577036
118.88858325168196        210.69103837981612       5                        47.555558278836486
122.10181539209526        211.98665681976507       8.04702058706295         47.519401071876366
4.147794563502849         225.0091050099251        5                        59.815862151430004
8.354065367525399         226.57955452582908       12.696531844829428       57.831401003570576
-0.7217768238996506       229.98261834863843       10.888575056572058       64.91745095474265
24.000000000000014        229.99999999999997       4.999999999999993        57.6110926050407
23.848194493187794        229.37790926659162       6.8332100903727735       55.892758713171716
27.175761540940115        227.50070821597257       5                        54.39521784450226
26.000000000000004        232                      4.999999999999993        57.611092587920886
21.56740099734808         234.44019914940483       4.999999999999993        57.61109264483848
127.56370739046369        206.61909220977407       10.375094524069816       47.436808719222206
125.30311000674669        211.78921475989685       5                        47.477421194045455
129.76159315064652        211.4287596872522        5                        47.42951304256804
128.47397202808526        201.52051522712242       5                        47.360470545984455
131.2337521841613         206.0000000000002        5                        47.36047054585122
125.36582163028088        201.80942473229592       15.750189048139626       47.46202856656625
144.9014567613272         172.91691647085142       10.829932507399532       47.255294868419476
146.34001739392693        174.73913444912012       5                        47.26380712953999
-126.00000000000006       206.00000000000017       4.999999999999963        47.053767781189656
-124.00000000000006       204.00000000000017       5                        47.0537677813939
-122.18170905107414       207.95277547244083       5                        47.3050440431612
-125.52140429703874       206.1792010511804        7.848970890778533        47.191600725275336
-127.54141670254612       202.44871588901776       5                        47.05376777880332
-128.25717042013486       234.27821158040848       4.999999999999993        47.17034325226369
-124                      232                      4.999999999999993        47.17034325608022
-128.4484299650678        234.80711306203577       7.997074634251602        47.2163438995784
-126                      229.99999999999997       4.999999999999993        47.170343254563655
-125.53457354488222       227.52573230739338       10.417049692093727       47.317885459020474
-122.39811136126848       227.3333203459582        5                        47.38174795455006
-141.99999999999997       229.99999999999997       4.999999999999993        47.17034324351908
-144                      232                      4.999999999999993        47.170343243036015
-142.66376284238845       229.03854278650962       9.885253906249996        47.03210983740624
-140.2232606358095        233.8382414444448        4.999999999999993        47.17034324534302
-136.76624781583863       229.99999999999997       4.999999999999993        47.17034324686399
-145.10436318184156       233.81414484908464       10.242428304692925       46.99635189498011
-20.5932276140485         230.01444204543103       0                        48.19504918130717
-21.772182024456633       232.24725670965535       -6.513671875             48.22645890289275
155.99999999999991        178.0000000000001        5                        47.13167493037276
153.04828611289633        180.69230789816243       5                        47.19229545594185
156.84898999274293        178.88112526592292       9.314034557436514        47.16386984538761
155.9999999999999         182.9613597644169        5                        47.13167493045593
157.99999999999997        176.0000000000001        5                        47.131674930163506
153.72881369243993        175.28146376286088       5                        47.182793984560995
159.78662863958556        179.76373103345333       5                        47.13167492975704
163.23375218416126        176.00000000000009       4.999999999999999        47.1316749290886
151.35462710448732        177.7283569700549        5                        47.212161431232516
150.320016084426          176.7949245020342        9.830342675148646        47.220391978391284
157.89600803931904        174.55147828428213       9.668442732878384        47.15481498323583
141.99999999999997        260                      4.999999999999993        47.4117891656861
144.00000000000003        258                      4.999999999999993        47.411789165344224
139.77009054783522        259.827970246606         9.531268459356635        47.360676343569715
140.45865274957438        256.4487022486032        5                        47.41178916672718
156                       258                      4.999999999999993        47.14118887815113
158                       260.00000000000006       4.999999999999993        47.141188878073045
154.95469805204772        256.34021204110775       9.531249999999998        47.20107948254543
159.82628785559328        256.16335050297585       4.999999999999993        47.14118887737429
153.672097666066          261.44494086287386       5                        47.204566989702606
-7.999999999999991        260                      4.999999999999993        92.50866279899172
-9.54134725042568         256.4487022486032        5                        92.50866279899172
-5.999999999999961        258                      4.999999999999993        92.50866279899172
-11.03859280970984        258.6974667243965        10.920317724029582       74.35526808339633
24.000000000000014        260.00000000000006       4.999999999999993        57.61109259742939
26.000000000000004        258                      4.999999999999993        57.61109258057059
23.145115863882744        259.98334305865677       9.068063721806695        55.40667372486676
22.450203488549782        256.4592319936736        4.999999999999993        57.6110926302065
27.530766478661306        261.5931638696207        5                        54.39997588345244
5.999999999999997         258                      4.999999999999993        57.61109281083306
8.00000000000001          260.00000000000006       4.999999999999993        57.611092792135466
4.970350545743566         257.28473690710325       11.390213021922134       60.96345066560819
9.826287855593295         256.16335050297585       4.999999999999993        57.61109276378874
3.827834774124419         261.47733223149686       5                        60.97340535171159
-4.856572934863692        261.9231993017652        5                        72.06186713058084
-6.130595947315107        262.8915209910619        11.473250023544372       66.94303151763096
-3.7048109976214505       282.83667480644544       5                        53.97630705384063
-6.000000000000012        286.0000000000001        4.9999999999999805       51.8788838893123
-8.00000000000001         284.0000000000001        4.9999999999999805       51.87888389888763
-3.8481719494519213       281.52396042645046       9.495319465372772        54.56973303833549
-24.00000000000002        260.00000000000006       5                        92.50866279899172
-26.000000000000004       258                      4.999999999999993        92.50866279899172
-23.925988588227092       260.253414313557         7.991340379527398        76.77665759310713
-28.049635524778758       261.9992847644487        5                        69.77836748156484
-21.524598398349788       255.5198248145738        5                        92.50866279899172
-10.7153302678471         259.77372821069093       0                        48.17069044031775
-4.636723725757719        257.77952116895506       0                        48.081869170584305
-9.110588115044711        259.4779047040424        -6.159667968750001       48.13167405046715
-5.557214829517675        263.6805741761283        0                        48.09584424133477
-8.303559379520562        254.01809898846474       0                        48.12360996694702
-2.1239136599348303       262.96307506804635       -6.3720703125            48.04703958947655
-0.15444988190274955      261.08317468837623       0                        48.03971200736981
-26.986010853600906       257.8547985563843        -5.847370168700936       48.58198888199741
-30.07689898582033        259.75341976014937       0                        48.761490526039445
125.61122543115006        260.04085717468365       0                        47.28824441478205
121.41749023895692        259.41695650959815       0                        47.33596388776123
124.68246484459867        259.5609125605703        -4.949269612630209       47.295955794023946
124.83489773967881        255.85607323629475       0                        47.30000829783224
122.47024985409237        265.1590098570865        0                        47.31756230372074
118.9551298682465         209.88256217226          12.894305372204654       47.55869872930823
128.47540160165036        255.51982481457384       5                        47.41178917006039
124                       258                      4.999999999999993        47.41178917121653
127.89679374978076        255.06105378977065       8.318940893493174        47.43416624256679
125.99999999999997        260.00000000000006       5                        47.41178917097567
141.99999999999997        284.0000000000001        4.9999999999999805       47.256255803768696
144                       286.0000000000001        4.9999999999999805       47.25625580331758
142.91115567164732        282.2950748134297        8.891490686945913        47.24268779970907
146.41610149976398        282.6813285241133        5                        47.21415455628432
122.00892881109968        261.74034217819616       5                        47.49002788247353
121.62880204551249        257.64850435640943       9.771541155732333        47.507889395869604
-122.78671328792824       203.4150258700306        0                        47.29220517600839
-122.58630609552874       207.61620841667047       0                        47.31238150337315
-117.17582022766122       204.90487940535016       0                        47.38910611104088
-120.13908743077695       204.3638217161561        -4.53125                 47.334819750204446
-138.92753622892073       226.00194679072118       5                        47.09111178294052
-143.2346189430628        224.4998994946715        5                        47.00693872657144
-145.96416359685816       229.35381539962995       5                        46.99550054464496
-148.46037088738345       225.5258473260556        5                        46.90709985394542
-126.75828521734609       204.98649691913863       -3.3984374999999996      47.238787296881135
-128.33603105039617       205.70485162313926       0                        47.22016918549617
143.53443446581142        257.91840149331034       -142.11628252251734      46.870326500908085
141.99999999999997        260                      -145.00000000000003      46.883190718468065
140.3467616607651         256.6718609265879        -143.82154230151875      46.88044285961579
140.95979349741677        260.6506267080347        -141.32555947152218      46.8697110765203
144.00000000000003        258                      -145.00000000000003      46.8831907184515
140.45865274957438        256.4487022486032        -145                     46.88319071869725
144.00000000000003        253.0386402355831        -145.00000000000003      46.883190718644755
-6.000000000000077        204.00000000000017       -145.00000000000006      47.070717451267164
-8.000000000000075        206.00000000000014       -145.00000000000006      47.070717451292914
-9.541399797839851        202.44871135567334       -145                     47.070717451082366
-6.309767042215106        205.123221321144         -140.7335929688405       47.08616517937133
-6.000000000000076        199.03864023558316       -145.00000000000006      47.070717451105985
10.476393728383684        201.51873624039993       -145                     47.08500528084138
5.999999999999956         204.00000000000017       -145.00000000000006      47.085005280849124
10.60355752014667         201.35680937576115       -141.49946995072457      47.08844726531444
7.999999999999957         206.00000000000017       -145.00000000000006      47.0850052808048
8.120089833764458         207.67689088585226       -140.96687382744673      47.09223572829471
23.999999999999957        206.00000000000017       -145.00000000000006      47.085005280461885
25.99999999999993         204.00000000000017       -145                     47.085005280387705
24.654703893236306        205.94153455707587       -138.203125              47.079505519243845
22.458583297453917        202.44871588901785       -145                     47.08500528058808
26.000000000000004        232                      -145.00000000000003      47.06106421803649
24.000000000000014        229.99999999999997       -145.00000000000003      47.061064218071245
27.73394251970956         228.39029850746147       -140.74767346475625      47.06296189233751
23.172189787883163        233.55254228160246       -140.8261461563796       47.06665311024184
21.56740099734813         234.44019914940475       -145.00000000000003      47.06106421816286
5.264368208899208         180.2519994089746        -141.4631808769938       47.080523549279775
5.99999999999993          178.0000000000001        -145                     47.0850052811279
10.949171133416671        179.4759573213825        -139.14123535156253      47.07999406606222
6.428133241192999         174.509101599661         -140.39714811043817      47.073481586812676
7.999999999999971         176.0000000000001        -145                     47.085005281082935
13.233752184161323        176.0000000000001        -145                     47.085005281079994
9.775901650626224         179.76087749987124       -145                     47.08500528123681
1.7447812783614267        175.64476999187016       -142.4566455682119       47.07315249883598
-8.000000000000075        176.00000000000017       -145.00000000000006      47.07071745026212
-6.000000000000072        178.0000000000001        -145.00000000000006      47.070717450322206
-9.766945822498272        179.77937720150206       -145                     47.070717450297735
-7.9468693672598425       174.68918537029103       -139.3359375             47.06752000214859
-24.000000000000078       176.00000000000017       -145.00000000000006      47.070717449413166
-26.000000000000078       178.0000000000001        -145.00000000000006      47.0707174493353
-21.82802209946514        177.6881457400025        -140.46875000000003      47.05961857051954
-22.145950403153982       179.83329958937486       -145                     47.07071744976258
-26.3153458512117         173.80856990414384       -138.20312500000003      47.041741594449
22.23616110260593         179.77103632893312       -145.00000000000003      47.085005281014325
25.99999999999996         178.0000000000001        -145.00000000000006      47.085005280684626
23.075804086426317        181.17033292084557       -141.32251603981234      47.07555027325079
23.999999999999957        176.00000000000017       -145.00000000000006      47.0850052806743
28.2835098749116          178.63687428338434       -139.9040598219109       47.05784320431323
124.79526740272244        201.32156023419566       -141.39723276841877      46.916125927186606
123.99999999999987        199.03864023558327       -145                     46.9138594364742
123.99999999999993        204.00000000000017       -145.00000000000006      46.91385943657329