% Model:              9.mph
% Version:            COMSOL 6.0.0.318
% Date:               Mar 12 2023, 01:18
% Dimension:          3
% Nodes:              40982
% Expressions:        1
% Description:        Electric potential
% Length unit:        µm
% x                       y                        z                        V (mV)
-6.000000000000072        178.0000000000001        4.999999999999963        52.49986520113283
-9.762365924686485        179.77010129940788       5                        52.4998652179096
-8.000000000000075        176.00000000000017       4.999999999999963        52.49986519933242
-8.28710989555618         181.30979572398508       9.566650390624982        51.778823576615565
-13.262281963165416       179.81820042917025       9.566650390625002        51.79863909047706
-6.000000000000076        182.96135976441698       4.999999999999963        52.499865226680456
-3.4876067236036623       181.56409715167797       8.96484374999998         51.53620655763575
25.99999999999996         178.0000000000001        4.999999999999963        51.15705633243489
23.999999999999957        176.00000000000017       4.999999999999963        51.15705633337375
28.459230049895048        173.52446862978258       5                        49.72530970777802
26.29160412390771         176.02463381645393       8.486617737615717        50.10650844358157
22.23616110260593         179.77103632893312       5                        51.15705635045958
127.7875766684129         179.76632460296707       5                        46.71141464348562
125.99999999999994        176.00000000000017       4.999999999999963        46.71141464420277
128.92844555434309        179.7712281187526        7.805353243156414        46.72795077764087
123.99999999999993        178.0000000000001        4.999999999999963        46.711414644316946
-8.000000000000075        206.00000000000014       4.999999999999963        52.49986539866403
-6.000000000000077        204.00000000000017       4.999999999999963        52.49986538309828
-9.94058343384101         205.49237836965483       9.672851562499996        54.13483431337251
-9.541338664793136        202.4486999713869        5                        52.49986536651119
-13.233752184161428       206.00000000000014       5                        52.49986539260185
-9.020875668940285        210.910915625293         5                        56.357858158330494
-6.1222494949545165       201.86530476716115       8.823242187499979        53.17629664175853
-24.000000000000078       176.00000000000017       4.999999999999963        52.49986519239219
-22.212423331587203       179.76632460296693       5                        52.49986521569138
-22.703822907547316       176.93969830576978       10.543736441153056       51.29590461804242
-18.76624781583873        176.0000000000001        4.999999999999963        52.49986520440256
-26.000000000000078       178.0000000000001        4.999999999999963        52.49986519669493
-22.84958721371435        171.18932837997772       5                        50.81329192364178
-27.929429103335313       171.1111383841656        11.513671875000002       50.35162256966236
-26.700462735178142       183.38032868525067       10.026855468749998       51.60023863837907
-30.21439866570297        181.31343126970302       5                        51.3268969583351
-27.480111285429757       177.43193545590012       10.768260806526554       51.02584240571448
-27.70535362856556        174.0038647150942        5                        50.930507657451294
-32.15739856770252        177.0462034588183        5                        50.74012993010785
-26.00000000000007        204.00000000000017       4.999999999999963        52.49986538483391
-24.000000000000092       206.00000000000017       5                        52.499865401605994
-28.78062001143757        207.686806582527         10.8056640625            54.63428239078637
-27.262050079751234       203.1416030140032        10.72058057716995        53.54701221811216
-21.473659441533183       200.99205492459453       11.493195274645268       53.272338657632574
-21.526027971914807       201.52051522712256       5                        52.499865360407505
-27.72111540161447        208.08983934720032       5                        54.714274778950404
5.99999999999993          178.0000000000001        5                        51.15705636364918
7.999999999999971         176.0000000000001        5                        51.157056359334256
6.915677597022557         177.68587801582143       9.412691525473079        50.79096126648779
3.711095237996993         175.2663853540875        5                        50.75874527105621
9.775901650626224         179.76087749987124       5                        51.15705636790624
13.233752184161323        176.0000000000001        5                        51.15705635635589
5.0848470312431004        170.57138399007243       5                        50.29637454614943
12.633826291503285        173.01158442083417       11.065876177012175       50.23771499680833
1.9848758295597153        176.09905689620138       7.78559718569182         50.82440210039872
3.8564274868295425        182.1457894385242        8.686022668320053        51.14381354910135
5.999999999999931         182.9613597644169        5                        51.157056378493515
-8.588887731054697        173.98335892559433       10.735796921913414       50.990835786496916
-6.097169692691153        171.19119292426458       5                        50.75765307059175
-3.648175447286945        174.70080510810473       5                        51.12035130382559
-10.733798043761773       170.49822615135474       5                        50.79079528540155
-13.23375218416142        176.00000000000006       4.999999999999961        52.49986520560141
-1.2362932937285631       179.97267446303772       12.350288068012253       51.111926779659825
-10.574219791112286       179.65823168355314       14.133300781250002       51.30928389263978
122.43455550938417        177.29363353544377       11.467553067558493       46.785204211142016
122.29257667547927        174.0294755241846        5                        46.76848480888154
-7.46292288205352         211.24177500854438       9.672851562499996        56.39907959920554
5.999999999999956         204.00000000000017       4.999999999999963        51.157056481222504
7.999999999999957         206.00000000000017       4.999999999999963        51.15705648672618
7.647268805562837         204.19465570280772       8.907341982671934        52.32992847351277
10.476393728383684        201.51873624039993       5                        51.1570564528841
3.653832705274347         207.27254920394475       5                        53.58729601894026
-5.999999999999991        232                      4.999999999999993        92.54294769966819
-4.261170915125846        229.8372924671695        7.561700994318179        71.94219781795667
-7.999999999999991        229.99999999999997       4.999999999999993        92.54294769966819
-3.0918068033444257       227.90222305981928       5                        68.47948395796722
5.999999999999997         232                      4.999999999999993        57.43785698365336
4.4193803638134455        230.33635606328147       5                        60.651734122051735
6.682423188249847         232.52637479218606       9.129423318827357        59.64598471505511
2.646522059111973         233.59817219314124       5                        63.52594147581631
8.00000000000001          229.99999999999997       4.999999999999993        57.43785696757833
9.807617192180262         233.8408147256269        4.999999999999993        57.43785693894404
11.373164261085238        230.49165328940964       7.627625038266923        57.50930644499069
126                       229.99999999999997       4.999999999999993        46.69347610507111
124.00000000000003        232                      4.999999999999993        46.69347610521368
121.92813282038709        228.0386850689282        5                        46.800210747597085
122.76963850709103        228.4676681120601        8.310815323833578        46.79652343087136
143.99999999999994        178.0000000000001        4.999999999999963        46.71141463929387
141.99999999999991        176.00000000000017       4.999999999999963        46.711414639575416
142.97599053350018        180.41881700829413       9.79822164175968         46.667726613094665
140.2376340753135         179.77010129940788       5                        46.711414640462635
143.99999999999994        204.00000000000017       4.999999999999963        46.711414641191645
141.99999999999991        206.00000000000014       4.999999999999963        46.71141464135787
140.45866133520684        202.4486999713869        5                        46.7114146419725
144.44049717755476        204.18137450580372       10.606413990698119       46.6551231349938
144.98712358981052        207.9807095626367        5                        46.652103923266615
157.99999999999997        206.00000000000017       4.999999999999963        46.44624103581205
155.99999999999997        204.00000000000017       4.999999999999963        46.446241036093824
160.47267672528025        201.52138044487822       5                        46.446241034745924
159.09227740661075        204.0577994343737        9.886876476337745        46.490056461173566
141.99999999999997        229.99999999999997       4.999999999999993        46.69347610061312
144                       232                      4.999999999999993        46.69347610021357
140.1871726040541         233.8170781217559        5                        46.693476101182426
143.31628724048818        229.44241022044793       9.768332093035442        46.64794823406655
146.34624254543257        228.2804462458906        5                        46.61620182366493
128.1582807745038         230.13095411792398       8.877124926630193        46.74435069564402
127.88211418452076        233.86761793398705       5                        46.69347610393799
155.48005452956107        209.59417135124738       10.878347230882138       46.534357068674886
153.70576481529832        207.31073208376787       5                        46.53927269427669
156                       232                      4.999999999999993        46.36183639175044
154.2350768202592         228.6029405639169        5                        46.49468350151977
158                       229.99999999999997       4.999999999999993        46.36183639173271
153.77928020966314        229.49837032629142       9.649792158779256        46.51278114489477
156.8606047006774         234.02471203928408       9.402167120350155        46.45093569879961
159.80761719218023        233.8408147256269        4.999999999999993        46.36183639010683
-7.571442246871337        233.3876288809881        9.672851562499995        76.46213922433815
-9.812827395945796        233.8170781217561        5                        92.54294769966819
5.999999999999997         236.96135976441718       4.999999999999994        57.43785700722654
-1.424669712564608        203.71657405625345       5                        53.38313537189759
-3.6497788096865946       208.02774022200583       5                        54.716559001592934
-3.4287110553788946       204.87411384365043       11.088867187499996       53.89316651015672
-2.6400524092206723       200.96926815989661       5                        52.89328804396963
-6.244498989908955        199.7306095343221        12.646484374999998       53.02649913084223
-10.339828202888883       208.53605676792273       14.345703124999996       55.3494713608193
-22.11788581547932        233.86761793398705       5                        92.54294769966819
-23.99999999999999        229.99999999999997       4.999999999999993        92.54294769966819
-20.65757873565361        233.640503807411         9.216109531377654        80.24395079056923
-25.999999999999996       232                      4.999999999999993        92.54294769966819
-27.265200568941864       230.34907340108498       9.849853515625           70.43346869855992
-28.04223889631764        228.05132872157964       5                        70.02551715016762
-26.096325430399464       232.18694473748576       0                        47.71685383322165
-29.377551302494602       229.89707576705896       -4.53125                 47.79971448001219
-24.823434388921974       227.1584701300282        0                        47.584696465086445
-31.483901274587822       228.99598315520478       0                        47.89618510142871
-21.626037609552          258.7180501489992        0                        47.7836545762055
-25.360554692474047       257.25726735301          0                        47.95523288138819
-24.374773566898327       261.2520925806974        0                        47.92289291430655
-22.78689796108608        256.9943600739051        -4.7509488553711865      47.80829520478964
23.999999999999957        206.00000000000017       4.999999999999963        51.15705643237578
25.99999999999993         204.00000000000017       5                        51.15705642687896
27.733775765390902        207.9142417743841        5                        51.31521175595513
23.63472479156482         204.0783359124815        10.592201430745552       51.341819404516166
22.458583297453917        202.44871588901776       5                        51.157056427091405
123.99999999999993        204.00000000000017       4.999999999999963        46.71141464627953
120.00998438584809        201.04304923223435       5                        46.81453015861423
123.99999999999987        199.03864023558302       5                        46.711414645445856
121.7225021582827         204.6764364934412        10.201686576058597       46.82053531466633
125.99999999999991        206.00000000000017       5                        46.711414646124574
122.33642521075939        208.07979591532242       5                        46.80727988155746
128.7773783680422         199.26443876479928       10.375094524069816       46.753483453391645
118.283430142212          205.73984883501333       5                        46.847381428743184
118.88858325168196        210.69103837981612       5                        46.85411268072893
122.10181539209526        211.98665681976507       8.04702058706295         46.82958793976988
4.147794563502849         225.0091050099251        5                        59.743776688313574
8.354065367525399         226.57955452582908       12.696531844829428       57.7347501425363
-0.7217768238996506       229.98261834863843       10.888575056572058       64.88425009854319
24.000000000000014        229.99999999999997       4.999999999999993        57.437856771354724
23.848194493187794        229.37790926659162       6.8332100903727735       55.68731277007784
27.175761540940115        227.50070821597257       5                        54.14165599684447
26.000000000000004        232                      4.999999999999993        57.43785675356241
21.56740099734808         234.44019914940483       4.999999999999993        57.43785681200359
127.56370739046369        206.61909220977407       10.375094524069816       46.77535982434604
125.30311000674669        211.78921475989685       5                        46.797579406070206
129.76159315064652        211.4287596872522        5                        46.7603831436471
128.47397202808526        201.52051522712242       5                        46.7114146447011
131.2337521841613         206.0000000000002        5                        46.71141464456872
125.36582163028088        201.80942473229592       15.750189048139626       46.81089070440546
144.9014567613272         172.91691647085142       10.829932507399532       46.63594525019888
146.34001739392693        174.73913444912012       5                        46.63256403369632
-126.00000000000006       206.00000000000017       4.999999999999963        47.777172800239775
-124.00000000000006       204.00000000000017       5                        47.777172800290494
-122.18170905107414       207.95277547244083       5                        47.96456434861029
-125.52140429703874       206.1792010511804        7.848970890778533        47.88277252792194
-127.54141670254612       202.44871588901776       5                        47.777172798423
-128.25717042013486       234.27821158040848       4.999999999999993        47.87222503735951
-124                      232                      4.999999999999993        47.872225040235115
-128.4484299650678        234.80711306203577       7.997074634251602        47.91037345945599
-126                      229.99999999999997       4.999999999999993        47.872225039152845
-125.53457354488222       227.52573230739338       10.417049692093727       47.99051139716751
-122.39811136126848       227.3333203459582        5                        48.031509180822404
-141.99999999999997       229.99999999999997       4.999999999999993        47.87222503108274
-144                      232                      4.999999999999993        47.872225030687446
-142.66376284238845       229.03854278650962       9.885253906249996        47.77729788072659
-140.2232606358095        233.8382414444448        4.999999999999993        47.87222503235591
-136.76624781583863       229.99999999999997       4.999999999999993        47.872225033549576
-145.10436318184156       233.81414484908464       10.242428304692925       47.74732482616221
-20.5932276140485         230.01444204543103       0                        47.47969210164743
-21.772182024456633       232.24725670965535       -6.513671875             47.524905536957775
155.99999999999991        178.0000000000001        5                        46.44624103619936
153.04828611289633        180.69230789816243       5                        46.53582657813457
156.84898999274293        178.88112526592292       9.314034557436514        46.506757020666015
155.9999999999999         182.9613597644169        5                        46.446241035898765
157.99999999999997        176.0000000000001        5                        46.44624103601786
153.72881369243993        175.28146376286088       5                        46.53633592947847
159.78662863958556        179.76373103345333       5                        46.446241035111264
163.23375218416126        176.00000000000009       4.999999999999999        46.44624103438523
151.35462710448732        177.7283569700549        5                        46.56854282219535
150.320016084426          176.7949245020342        9.830342675148646        46.585171515014714
157.89600803931904        174.55147828428213       9.668442732878384        46.50673563872214
141.99999999999997        260                      4.999999999999993        46.693476096572745
144.00000000000003        258                      4.999999999999993        46.693476096250926
139.77009054783522        259.827970246606         9.531268459356635        46.63979451037029
140.45865274957438        256.4487022486032        5                        46.69347609772307
156                       258                      4.999999999999993        46.3618363888307
158                       260.00000000000006       4.999999999999993        46.36183638877025
154.95469805204772        256.34021204110775       9.531249999999998        46.45406260551633
159.82628785559328        256.16335050297585       4.999999999999993        46.36183638764614
153.672097666066          261.44494086287386       5                        46.45636794949626
-7.999999999999991        260                      4.999999999999993        92.54294769966819
-9.54134725042568         256.4487022486032        5                        92.54294769966819
-5.999999999999961        258                      4.999999999999993        92.54294769966818
-11.03859280970984        258.6974667243965        10.920317724029582       74.37186549908891
24.000000000000014        260.00000000000006       4.999999999999993        57.43785676238256
26.000000000000004        258                      4.999999999999993        57.437856744767025
23.145115863882744        259.98334305865677       9.068063721806695        55.17312422459386
22.450203488549782        256.4592319936736        4.999999999999993        57.437856796196016
27.530766478661306        261.5931638696207        5                        54.10800170683059
5.999999999999997         258                      4.999999999999993        57.43785698092997
8.00000000000001          260.00000000000006       4.999999999999993        57.43785696214521
4.970350545743566         257.28473690710325       11.390213021922134       60.86296762055576
9.826287855593295         256.16335050297585       4.999999999999993        57.43785693300133
3.827834774124419         261.47733223149686       5                        60.86748690395693
-4.856572934863692        261.9231993017652        5                        72.04211664792376
-6.130595947315107        262.8915209910619        11.473250023544372       66.92589888352062
-3.7048109976214505       282.83667480644544       5                        53.9055946527353
-6.000000000000012        286.0000000000001        4.9999999999999805       51.83875598628463
-8.00000000000001         284.0000000000001        4.9999999999999805       51.838755996135156
-3.8481719494519213       281.52396042645046       9.495319465372772        54.50343172762048
-24.00000000000002        260.00000000000006       5                        92.5429476996682
-26.000000000000004       258                      4.999999999999993        92.54294769966819
-23.925988588227092       260.253414313557         7.991340379527398        76.8222518310954
-28.049635524778758       261.9992847644487        5                        69.82966029158138
-21.524598398349788       255.5198248145738        5                        92.54294769966819
-10.7153302678471         259.77372821069093       0                        47.40119558164783
-4.636723725757719        257.77952116895506       0                        47.24178725471859
-9.110588115044711        259.4779047040424        -6.159667968750001       47.34009196777768
-5.557214829517675        263.6805741761283        0                        47.28229766724757
-8.303559379520562        254.01809898846474       0                        47.31237443742015
-2.1239136599348303       262.96307506804635       -6.3720703125            47.192701601802504
-0.15444988190274955      261.08317468837623       0                        47.16442632791928
-26.986010853600906       257.8547985563843        -5.847370168700936       48.004892637466135
-30.07689898582033        259.75341976014937       0                        48.239752301963506
125.61122543115006        260.04085717468365       0                        45.256909779902415
121.41749023895692        259.41695650959815       0                        45.359328540676714
124.68246484459867        259.5609125605703        -4.949269612630209       45.261933041874826
124.83489773967881        255.85607323629475       0                        45.25197267654636
122.47024985409237        265.1590098570865        0                        45.36833880853787
118.9551298682465         209.88256217226          12.894305372204654       46.868295062222366
128.47540160165036        255.51982481457384       5                        46.69347610044856
124                       258                      4.999999999999993        46.69347610088138
127.89679374978076        255.06105378977065       8.318940893493174        46.7057998644102
125.99999999999997        260.00000000000006       5                        46.6934761006171
141.99999999999997        284.0000000000001        4.9999999999999805       46.494113252620636
144                       286.0000000000001        4.9999999999999805       46.494113252196705
142.91115567164732        282.2950748134297        8.891490686945913        46.497171257076495
146.41610149976398        282.6813285241133        5                        46.464053499337346
122.00892881109968        261.74034217819616       5                        46.71185783063184
121.62880204551249        257.64850435640943       9.771541155732333        46.73660490175732
-122.78671328792824       203.4150258700306        0                        47.2821043762259
-122.58630609552874       207.61620841667047       0                        47.305599346766876
-117.17582022766122       204.90487940535016       0                        47.37260126507308
-120.13908743077695       204.3638217161561        -4.53125                 47.31979998028522
-138.92753622892073       226.00194679072118       5                        47.8209564360377
-143.2346189430628        224.4998994946715        5                        47.757504373388095
-145.96416359685816       229.35381539962995       5                        47.744272957675086
-148.46037088738345       225.5258473260556        5                        47.678232775281565
-126.75828521734609       204.98649691913863       -3.3984374999999996      47.23699210830306
-128.33603105039617       205.70485162313926       0                        47.22321180412486
143.53443446581142        257.91840149331034       -142.11628252251734      14.503170471846209
141.99999999999997        260                      -145.00000000000003      0
140.3467616607651         256.6718609265879        -143.82154230151875      4.29043001830479
140.95979349741677        260.6506267080347        -141.32555947152218      17.534917909896542
144.00000000000003        258                      -145.00000000000003      0
140.45865274957438        256.4487022486032        -145                     0
144.00000000000003        253.0386402355831        -145.00000000000003      0
-6.000000000000077        204.00000000000017       -145.00000000000006      45.89440741178304
-8.000000000000075        206.00000000000014       -145.00000000000006      45.894407411933464
-9.541399797839851        202.44871135567334       -145                     45.8944074132055
-6.309767042215106        205.123221321144         -140.7335929688405       45.799143799447684
-6.000000000000076        199.03864023558316       -145.00000000000006      45.89440741224414
10.476393728383684        201.51873624039993       -145                     45.46696498368828
5.999999999999956         204.00000000000017       -145.00000000000006      45.466964985755176
10.60355752014667         201.35680937576115       -141.49946995072457      45.496361359346764
7.999999999999957         206.00000000000017       -145.00000000000006      45.466964984946586
8.120089833764458         207.67689088585226       -140.96687382744673      45.531935963982704
23.999999999999957        206.00000000000017       -145.00000000000006      45.46696497539809
25.99999999999993         204.00000000000017       -145                     45.466964974442234
24.654703893236306        205.94153455707587       -138.203125              45.284063156740714
22.458583297453917        202.44871588901785       -145                     45.466964977625345
26.000000000000004        232                      -145.00000000000003      45.349795418151984
24.000000000000014        229.99999999999997       -145.00000000000003      45.34979541920013
27.73394251970956         228.39029850746147       -140.74767346475625      45.12786159266816
23.172189787883163        233.55254228160246       -140.8261461563796       45.263094387955555
21.56740099734813         234.44019914940475       -145.00000000000003      45.3497954215711
5.264368208899208         180.2519994089746        -141.4631808769938       45.60013669151807
5.99999999999993          178.0000000000001        -145                     45.4669649898292
10.949171133416671        179.4759573213825        -139.14123535156253      45.548718340822
6.428133241192999         174.509101599661         -140.39714811043817      45.631441992837374
7.999999999999971         176.0000000000001        -145                     45.46696498952799
13.233752184161323        176.0000000000001        -145                     45.466964986795226
9.775901650626224         179.76087749987124       -145                     45.46696498751269
1.7447812783614267        175.64476999187016       -142.4566455682119       45.69713538166273
-8.000000000000075        176.00000000000017       -145.00000000000006      45.894407413763226
-6.000000000000072        178.0000000000001        -145.00000000000006      45.89440741312784
-9.766945822498272        179.77937720150206       -145                     45.89440741451348
-7.9468693672598425       174.68918537029103       -139.3359375             45.850501028324594
-24.000000000000078       176.00000000000017       -145.00000000000006      45.89440741938893
-26.000000000000078       178.0000000000001        -145.00000000000006      45.894407419807116
-21.82802209946514        177.6881457400025        -140.46875000000003      45.94402592958963
-22.145950403153982       179.83329958937486       -145                     45.89440741816406
-26.3153458512117         173.80856990414384       -138.20312500000003      46.00751176420683
22.23616110260593         179.77103632893312       -145.00000000000003      45.466964982291636
25.99999999999996         178.0000000000001        -145.00000000000006      45.4669649809795
23.075804086426317        181.17033292084557       -141.32251603981234      45.431560321123726
23.999999999999957        176.00000000000017       -145.00000000000006      45.46696498166438
28.2835098749116          178.63687428338434       -139.9040598219109       45.34723323153563
124.79526740272244        201.32156023419566       -141.39723276841877      39.54829740273479
123.99999999999987        199.03864023558327       -145                     40.07352506720009
123.99999999999993        204.00000000000017       -145.00000000000006      40.0735250296109