% Model:              9.mph
% Version:            COMSOL 6.0.0.318
% Date:               Mar 12 2023, 01:19
% Dimension:          3
% Nodes:              40982
% Expressions:        1
% Description:        Electric potential
% Length unit:        µm
% x                       y                        z                        V (mV)
-6.000000000000072        178.0000000000001        4.999999999999963        52.44889497030545
-9.762365924686485        179.77010129940788       5                        52.4488949861398
-8.000000000000075        176.00000000000017       4.999999999999963        52.44889496819535
-8.28710989555618         181.30979572398508       9.566650390624982        51.759152415868805
-13.262281963165416       179.81820042917025       9.566650390625002        51.756118668986566
-6.000000000000076        182.96135976441698       4.999999999999963        52.44889499550858
-3.4876067236036623       181.56409715167797       8.96484374999998         51.554222619072995
25.99999999999996         178.0000000000001        4.999999999999963        51.323332617711614
23.999999999999957        176.00000000000017       4.999999999999963        51.32333261833104
28.459230049895048        173.52446862978258       5                        49.96926679163788
26.29160412390771         176.02463381645393       8.486617737615717        50.32657069013836
22.23616110260593         179.77103632893312       5                        51.32333263473111
127.7875766684129         179.76632460296707       5                        47.41861996921481
125.99999999999994        176.00000000000017       4.999999999999963        47.418619969332624
128.92844555434309        179.7712281187526        7.805353243156414        47.41984327727446
123.99999999999993        178.0000000000001        4.999999999999963        47.41861996960063
-8.000000000000075        206.00000000000014       4.999999999999963        52.44889516697155
-6.000000000000077        204.00000000000017       4.999999999999963        52.44889515162494
-9.94058343384101         205.49237836965483       9.672851562499996        54.10947870634556
-9.541338664793136        202.4486999713869        5                        52.44889513425175
-13.233752184161428       206.00000000000014       5                        52.448895159738086
-9.020875668940285        210.910915625293         5                        56.34348332547348
-6.1222494949545165       201.86530476716115       8.823242187499979        53.169586339356904
-24.000000000000078       176.00000000000017       4.999999999999963        52.44889495723465
-22.212423331587203       179.76632460296693       5                        52.44889498129526
-22.703822907547316       176.93969830576978       10.543736441153056       51.2092855337609
-18.76624781583873        176.0000000000001        4.999999999999963        52.44889497060091
-26.000000000000078       178.0000000000001        4.999999999999963        52.44889496134279
-22.84958721371435        171.18932837997772       5                        50.72214891631099
-27.929429103335313       171.1111383841656        11.513671875000002       50.2186947547347
-26.700462735178142       183.38032868525067       10.026855468749998       51.49115311320622
-30.21439866570297        181.31343126970302       5                        51.19176505209669
-27.480111285429757       177.43193545590012       10.768260806526554       50.90403057207638
-27.70535362856556        174.0038647150942        5                        50.81090830320256
-32.15739856770252        177.0462034588183        5                        50.57912426047631
-26.00000000000007        204.00000000000017       4.999999999999963        52.44889514910993
-24.000000000000092       206.00000000000017       5                        52.44889516593843
-28.78062001143757        207.686806582527         10.8056640625            54.490042716919696
-27.262050079751234       203.1416030140032        10.72058057716995        53.42306318288695
-21.473659441533183       200.99205492459453       11.493195274645268       53.19145730474293
-21.526027971914807       201.52051522712256       5                        52.44889512585415
-27.72111540161447        208.08983934720032       5                        54.58702278247398
5.99999999999993          178.0000000000001        5                        51.32333264466986
7.999999999999971         176.0000000000001        5                        51.3233326404211
6.915677597022557         177.68587801582143       9.412691525473079        50.9100209512112
3.711095237996993         175.2663853540875        5                        50.85292416917946
9.775901650626224         179.76087749987124       5                        51.3233326497821
13.233752184161323        176.0000000000001        5                        51.32333263871334
5.0848470312431004        170.57138399007243       5                        50.3902175879019
12.633826291503285        173.01158442083417       11.065876177012175       50.38143977441192
1.9848758295597153        176.09905689620138       7.78559718569182         50.89900269460057
3.8564274868295425        182.1457894385242        8.686022668320053        51.241589289949694
5.999999999999931         182.9613597644169        5                        51.3233326598948
-8.588887731054697        173.98335892559433       10.735796921913414       50.978980002451166
-6.097169692691153        171.19119292426458       5                        50.76170162481515
-3.648175447286945        174.70080510810473       5                        51.13659223434236
-10.733798043761773       170.49822615135474       5                        50.76572484958586
-13.23375218416142        176.00000000000006       4.999999999999961        52.448894973215815
-1.2362932937285631       179.97267446303772       12.350288068012253       51.15551158474023
-10.574219791112286       179.65823168355314       14.133300781250002       51.286405799534464
122.43455550938417        177.29363353544377       11.467553067558493       47.45189178997163
122.29257667547927        174.0294755241846        5                        47.43832272581702
-7.46292288205352         211.24177500854438       9.672851562499996        56.39784055235372
5.999999999999956         204.00000000000017       4.999999999999963        51.32333276301351
7.999999999999957         206.00000000000017       4.999999999999963        51.323332768661075
7.647268805562837         204.19465570280772       8.907341982671934        52.46167366843996
10.476393728383684        201.51873624039993       5                        51.32333273561646
3.653832705274347         207.27254920394475       5                        53.683406349192076
-5.999999999999991        232                      4.999999999999993        92.48180504941946
-4.261170915125846        229.8372924671695        7.561700994318179        71.95466262880828
-7.999999999999991        229.99999999999997       4.999999999999993        92.48180504941946
-3.0918068033444257       227.90222305981928       5                        68.50710035176586
5.999999999999997         232                      4.999999999999993        57.628973298402286
4.4193803638134455        230.33635606328147       5                        60.77805153350783
6.682423188249847         232.52637479218606       9.129423318827357        59.784130172441
2.646522059111973         233.59817219314124       5                        63.62949116091318
8.00000000000001          229.99999999999997       4.999999999999993        57.62897328234733
9.807617192180262         233.8408147256269        4.999999999999993        57.62897325463803
11.373164261085238        230.49165328940964       7.627625038266923        57.681488488835846
126                       229.99999999999997       4.999999999999993        47.426757202873944
124.00000000000003        232                      4.999999999999993        47.426757203118946
121.92813282038709        228.0386850689282        5                        47.53530871226575
122.76963850709103        228.4676681120601        8.310815323833578        47.52895421991789
143.99999999999994        178.0000000000001        4.999999999999963        47.41861996577182
141.99999999999991        176.00000000000017       4.999999999999963        47.41861996590102
142.97599053350018        180.41881700829413       9.79822164175968         47.35606288657551
140.2376340753135         179.77010129940788       5                        47.41861996712168
143.99999999999994        204.00000000000017       4.999999999999963        47.41861996767273
141.99999999999991        206.00000000000014       4.999999999999963        47.41861996781023
140.45866133520684        202.4486999713869        5                        47.418619968444894
144.44049717755476        204.18137450580372       10.606413990698119       47.358658514384985
144.98712358981052        207.9807095626367        5                        47.361183683600295
157.99999999999997        206.00000000000017       4.999999999999963        47.18756746012583
155.99999999999997        204.00000000000017       4.999999999999963        47.187567460349506
160.47267672528025        201.52138044487822       5                        47.18756745926505
159.09227740661075        204.0577994343737        9.886876476337745        47.21972242079779
141.99999999999997        229.99999999999997       4.999999999999993        47.42675719803037
144                       232                      4.999999999999993        47.42675719767067
140.1871726040541         233.8170781217559        5                        47.4267571987144
143.31628724048818        229.44241022044793       9.768332093035442        47.37427499554829
146.34624254543257        228.2804462458906        5                        47.34820365095249
128.1582807745038         230.13095411792398       8.877124926630193        47.47073636472699
127.88211418452076        233.86761793398705       5                        47.426757201826256
155.48005452956107        209.59417135124738       10.878347230882138       47.257885121764964
153.70576481529832        207.31073208376787       5                        47.26314412239093
156                       232                      4.999999999999993        47.16641363222388
154.2350768202592         228.6029405639169        5                        47.25191296846278
158                       229.99999999999997       4.999999999999993        47.1664136321514
153.77928020966314        229.49837032629142       9.649792158779256        47.263277685219094
156.8606047006774         234.02471203928408       9.402167120350155        47.2218073947148
159.80761719218023        233.8408147256269        4.999999999999993        47.16641363116578
-7.571442246871337        233.3876288809881        9.672851562499995        76.44598078756398
-9.812827395945796        233.8170781217561        5                        92.48180504941946
5.999999999999997         236.96135976441718       4.999999999999994        57.62897332204656
-1.424669712564608        203.71657405625345       5                        53.423632359275025
-3.6497788096865946       208.02774022200583       5                        54.73825212904932
-3.4287110553788946       204.87411384365043       11.088867187499996       53.91996776713379
-2.6400524092206723       200.96926815989661       5                        52.91506250884783
-6.244498989908955        199.7306095343221        12.646484374999998       53.03022694585456
-10.339828202888883       208.53605676792273       14.345703124999996       55.33008401909372
-22.11788581547932        233.86761793398705       5                        92.48180504941946
-23.99999999999999        229.99999999999997       4.999999999999993        92.48180504941946
-20.65757873565361        233.640503807411         9.216109531377654        80.16427607736746
-25.999999999999996       232                      4.999999999999993        92.48180504941946
-27.265200568941864       230.34907340108498       9.849853515625           70.29897276863129
-28.04223889631764        228.05132872157964       5                        69.88587536706088
-26.096325430399464       232.18694473748576       0                        47.52942354701432
-29.377551302494602       229.89707576705896       -4.53125                 47.563641735457274
-24.823434388921974       227.1584701300282        0                        47.415709782149214
-31.483901274587822       228.99598315520478       0                        47.63100351381287
-21.626037609552          258.7180501489992        0                        47.66520227370129
-25.360554692474047       257.25726735301          0                        47.78331616415279
-24.374773566898327       261.2520925806974        0                        47.766101092797044
-22.78689796108608        256.9943600739051        -4.7509488553711865      47.67215680371475
23.999999999999957        206.00000000000017       4.999999999999963        51.323332718480856
25.99999999999993         204.00000000000017       5                        51.32333271326736
27.733775765390902        207.9142417743841        5                        51.56672677832495
23.63472479156482         204.0783359124815        10.592201430745552       51.557201856557775
22.458583297453917        202.44871588901776       5                        51.32333271241289
123.99999999999993        204.00000000000017       4.999999999999963        47.418619972399476
120.00998438584809        201.04304923223435       5                        47.51875201002667
123.99999999999987        199.03864023558302       5                        47.418619971866804
121.7225021582827         204.6764364934412        10.201686576058597       47.522227490279725
125.99999999999991        206.00000000000017       5                        47.4186199722132
122.33642521075939        208.07979591532242       5                        47.51511602365049
128.7773783680422         199.26443876479928       10.375094524069816       47.44937273128942
118.283430142212          205.73984883501333       5                        47.55797435236975
118.88858325168196        210.69103837981612       5                        47.5692322289749
122.10181539209526        211.98665681976507       8.04702058706295         47.53999733998515
4.147794563502849         225.0091050099251        5                        59.84345218296437
8.354065367525399         226.57955452582908       12.696531844829428       57.865040354534116
-0.7217768238996506       229.98261834863843       10.888575056572058       64.93837851362512
24.000000000000014        229.99999999999997       4.999999999999993        57.6289730906389
23.848194493187794        229.37790926659162       6.8332100903727735       55.910378755256964
27.175761540940115        227.50070821597257       5                        54.40696170799082
26.000000000000004        232                      4.999999999999993        57.62897307342313
21.56740099734808         234.44019914940483       4.999999999999993        57.628973130464104
127.56370739046369        206.61909220977407       10.375094524069816       47.474989323737574
125.30311000674669        211.78921475989685       5                        47.50548714882363
129.76159315064652        211.4287596872522        5                        47.46561325058121
128.47397202808526        201.52051522712242       5                        47.418619971101926
131.2337521841613         206.0000000000002        5                        47.41861997070612
125.36582163028088        201.80942473229592       15.750189048139626       47.4971965153461
144.9014567613272         172.91691647085142       10.829932507399532       47.30534349820753
146.34001739392693        174.73913444912012       5                        47.315896291295005
-126.00000000000006       206.00000000000017       4.999999999999963        47.13480455224704
-124.00000000000006       204.00000000000017       5                        47.13480455237402
-122.18170905107414       207.95277547244083       5                        47.329652343329535
-125.52140429703874       206.1792010511804        7.848970890778533        47.24636130849641
-127.54141670254612       202.44871588901776       5                        47.13480455034925
-128.25717042013486       234.27821158040848       4.999999999999993        47.17973492341127
-124                      232                      4.999999999999993        47.179734926665446
-128.4484299650678        234.80711306203577       7.997074634251602        47.226736813681306
-126                      229.99999999999997       4.999999999999993        47.17973492553852
-125.53457354488222       227.52573230739338       10.417049692093727       47.327108296887374
-122.39811136126848       227.3333203459582        5                        47.36479543179718
-141.99999999999997       229.99999999999997       4.999999999999993        47.179734916627886
-144                      232                      4.999999999999993        47.1797349161199
-142.66376284238845       229.03854278650962       9.885253906249996        47.08991081100166
-140.2232606358095        233.8382414444448        4.999999999999993        47.17973491786234
-136.76624781583863       229.99999999999997       4.999999999999993        47.179734919355106
-145.10436318184156       233.81414484908464       10.242428304692925       47.04977985587735
-20.5932276140485         230.01444204543103       0                        47.37328022616491
-21.772182024456633       232.24725670965535       -6.513671875             47.39990746084989
155.99999999999991        178.0000000000001        5                        47.18756745906848
153.04828611289633        180.69230789816243       5                        47.24605867251251
156.84898999274293        178.88112526592292       9.314034557436514        47.216874835768046
155.9999999999999         182.9613597644169        5                        47.1875674591946
157.99999999999997        176.0000000000001        5                        47.187567458851575
153.72881369243993        175.28146376286088       5                        47.234881328784404
159.78662863958556        179.76373103345333       5                        47.187567458565596
163.23375218416126        176.00000000000009       4.999999999999999        47.18756745799135
151.35462710448732        177.7283569700549        5                        47.26477583991223
150.320016084426          176.7949245020342        9.830342675148646        47.27237938199749
157.89600803931904        174.55147828428213       9.668442732878384        47.20608103981727
141.99999999999997        260                      4.999999999999993        47.42675719610376
144.00000000000003        258                      4.999999999999993        47.42675719580665
139.77009054783522        259.827970246606         9.531268459356635        47.37620446689152
140.45865274957438        256.4487022486032        5                        47.42675719713816
156                       258                      4.999999999999993        47.16641363064769
158                       260.00000000000006       4.999999999999993        47.16641363053731
154.95469805204772        256.34021204110775       9.531249999999998        47.22476531294122
159.82628785559328        256.16335050297585       4.999999999999993        47.16641362991185
153.672097666066          261.44494086287386       5                        47.22579883157106
-7.999999999999991        260                      4.999999999999993        92.48180504941946
-9.54134725042568         256.4487022486032        5                        92.48180504941946
-5.999999999999961        258                      4.999999999999993        92.48180504941946
-11.03859280970984        258.6974667243965        10.920317724029582       74.33799042126947
24.000000000000014        260.00000000000006       4.999999999999993        57.62897308219863
26.000000000000004        258                      4.999999999999993        57.62897306519543
23.145115863882744        259.98334305865677       9.068063721806695        55.4089945780288
22.450203488549782        256.4592319936736        4.999999999999993        57.628973115251355
27.530766478661306        261.5931638696207        5                        54.386727126271964
5.999999999999997         258                      4.999999999999993        57.62897329586688
8.00000000000001          260.00000000000006       4.999999999999993        57.62897327712953
4.970350545743566         257.28473690710325       11.390213021922134       60.975688826069074
9.826287855593295         256.16335050297585       4.999999999999993        57.628973248934855
3.827834774124419         261.47733223149686       5                        60.97839840351995
-4.856572934863692        261.9231993017652        5                        72.04818054799766
-6.130595947315107        262.8915209910619        11.473250023544372       66.93288245662592
-3.7048109976214505       282.83667480644544       5                        53.92119156252233
-6.000000000000012        286.0000000000001        4.9999999999999805       51.76637279047411
-8.00000000000001         284.0000000000001        4.9999999999999805       51.7663728000047
-3.8481719494519213       281.52396042645046       9.495319465372772        54.52604318304185
-24.00000000000002        260.00000000000006       5                        92.48180504941946
-26.000000000000004       258                      4.999999999999993        92.48180504941946
-23.925988588227092       260.253414313557         7.991340379527398        76.72062787770143
-28.049635524778758       261.9992847644487        5                        69.68366358414458
-21.524598398349788       255.5198248145738        5                        92.48180504941948
-10.7153302678471         259.77372821069093       0                        47.44066368178175
-4.636723725757719        257.77952116895506       0                        47.37056726857556
-9.110588115044711        259.4779047040424        -6.159667968750001       47.40313911778847
-5.557214829517675        263.6805741761283        0                        47.395433894225754
-8.303559379520562        254.01809898846474       0                        47.38836566017847
-2.1239136599348303       262.96307506804635       -6.3720703125            47.35638137723702
-0.15444988190274955      261.08317468837623       0                        47.356744036983294
-26.986010853600906       257.8547985563843        -5.847370168700936       47.80877062407513
-30.07689898582033        259.75341976014937       0                        48.00328076828153
125.61122543115006        260.04085717468365       0                        47.066556753637656
121.41749023895692        259.41695650959815       0                        47.114734508237575
124.68246484459867        259.5609125605703        -4.949269612630209       47.07261870595515
124.83489773967881        255.85607323629475       0                        47.07439012957423
122.47024985409237        265.1590098570865        0                        47.10206122566301
118.9551298682465         209.88256217226          12.894305372204654       47.57448591291858
128.47540160165036        255.51982481457384       5                        47.42675720009674
124                       258                      4.999999999999993        47.426757200960814
127.89679374978076        255.06105378977065       8.318940893493174        47.444508232488246
125.99999999999997        260.00000000000006       5                        47.42675720070986
141.99999999999997        284.0000000000001        4.9999999999999805       47.24405361346488
144                       286.0000000000001        4.9999999999999805       47.24405361305491
142.91115567164732        282.2950748134297        8.891490686945913        47.24471429755453
146.41610149976398        282.6813285241133        5                        47.217274505974494
122.00892881109968        261.74034217819616       5                        47.48185466166582
121.62880204551249        257.64850435640943       9.771541155732333        47.50156302541314
-122.78671328792824       203.4150258700306        0                        45.653595628662536
-122.58630609552874       207.61620841667047       0                        45.66376264974689
-117.17582022766122       204.90487940535016       0                        45.825342062218624
-120.13908743077695       204.3638217161561        -4.53125                 45.72211108743795
-138.92753622892073       226.00194679072118       5                        47.14171511333292
-143.2346189430628        224.4998994946715        5                        47.07289402035524
-145.96416359685816       229.35381539962995       5                        47.0466150513443
-148.46037088738345       225.5258473260556        5                        46.977961089515865
-126.75828521734609       204.98649691913863       -3.3984374999999996      45.54406687955453
-128.33603105039617       205.70485162313926       0                        45.50953262239533
143.53443446581142        257.91840149331034       -142.11628252251734      46.51847401015983
141.99999999999997        260                      -145.00000000000003      46.51556329611751
140.3467616607651         256.6718609265879        -143.82154230151875      46.516346303743255
140.95979349741677        260.6506267080347        -141.32555947152218      46.51688419940136
144.00000000000003        258                      -145.00000000000003      46.51556329615424
140.45865274957438        256.4487022486032        -145                     46.5155632961073
144.00000000000003        253.0386402355831        -145.00000000000003      46.515563296222474
-6.000000000000077        204.00000000000017       -145.00000000000006      45.869723224508895
-8.000000000000075        206.00000000000014       -145.00000000000006      45.86972322432375
-9.541399797839851        202.44871135567334       -145                     45.86972322347305
-6.309767042215106        205.123221321144         -140.7335929688405       45.94031770535563
-6.000000000000076        199.03864023558316       -145.00000000000006      45.869723224463776
10.476393728383684        201.51873624039993       -145                     46.1406559409075
5.999999999999956         204.00000000000017       -145.00000000000006      46.140655939756805
10.60355752014667         201.35680937576115       -141.49946995072457      46.12637618506006
7.999999999999957         206.00000000000017       -145.00000000000006      46.14065594012904
8.120089833764458         207.67689088585226       -140.96687382744673      46.10122955057844
23.999999999999957        206.00000000000017       -145.00000000000006      46.140655943597835
25.99999999999993         204.00000000000017       -145                     46.140655943870286
24.654703893236306        205.94153455707587       -138.203125              46.190733558360286
22.458583297453917        202.44871588901785       -145                     46.1406559430747
26.000000000000004        232                      -145.00000000000003      46.13906067685831
24.000000000000014        229.99999999999997       -145.00000000000003      46.13906067660479
27.73394251970956         228.39029850746147       -140.74767346475625      46.20262207697411
23.172189787883163        233.55254228160246       -140.8261461563796       46.168744327807424
21.56740099734813         234.44019914940475       -145.00000000000003      46.13906067590371
5.264368208899208         180.2519994089746        -141.4631808769938       46.090991700396664
5.99999999999993          178.0000000000001        -145                     46.14065594017759
10.949171133416671        179.4759573213825        -139.14123535156253      46.126584152235175
6.428133241192999         174.509101599661         -140.39714811043817      46.09632959937207
7.999999999999971         176.0000000000001        -145                     46.140655940447125
13.233752184161323        176.0000000000001        -145                     46.140655941585
9.775901650626224         179.76087749987124       -145                     46.14065594100261
1.7447812783614267        175.64476999187016       -142.4566455682119       46.05132889307732
-8.000000000000075        176.00000000000017       -145.00000000000006      45.86972322575257
-6.000000000000072        178.0000000000001        -145.00000000000006      45.86972322622803
-9.766945822498272        179.77937720150206       -145                     45.86972322464282
-7.9468693672598425       174.68918537029103       -139.3359375             45.95525693285971
-24.000000000000078       176.00000000000017       -145.00000000000006      45.86972322030449
-26.000000000000078       178.0000000000001        -145.00000000000006      45.86972321970438
-21.82802209946514        177.6881457400025        -140.46875000000003      45.84715241200059
-22.145950403153982       179.83329958937486       -145                     45.86972322106208
-26.3153458512117         173.80856990414384       -138.20312500000003      45.798889849568766
22.23616110260593         179.77103632893312       -145.00000000000003      46.14065594314172
25.99999999999996         178.0000000000001        -145.00000000000006      46.14065594386929
23.075804086426317        181.17033292084557       -141.32251603981234      46.16479319677737
23.999999999999957        176.00000000000017       -145.00000000000006      46.14065594373428
28.2835098749116          178.63687428338434       -139.9040598219109       46.2013663600533
124.79526740272244        201.32156023419566       -141.39723276841877      46.51087274821393
123.99999999999987        199.03864023558327       -145                     46.51538312256882
123.99999999999993        204.00000000000017       -145.00000000000006      46.51538312260998